300
Atoms. Timestep: 0
329188256              0.285142                     5               34.3065
329188256              0.285142                     5               36.7665
329188256              0.285142                     5               39.2265
329188256              0.285142                     5               41.6865
329188256              0.285142                     5               44.1465
329188256              0.285142                     5               46.6065
329188256              0.285142                     5               49.0665
329188256              2.426605                     5               33.0765
329188256              2.426605                     5               35.5365
329188256              2.426605                     5               37.9965
329188256              2.426605                     5               40.4565
329188256              2.426605                     5               42.9165
329188256              2.426605                     5               45.3765
329188256              2.426605                     5               47.8365
329188256              1.712898                     5               34.3065
329188256              1.712898                     5               36.7665
329188256              1.712898                     5               39.2265
329188256              1.712898                     5               41.6865
329188256              1.712898                     5               44.1465
329188256              1.712898                     5               46.6065
329188256              1.712898                     5               49.0665
329188256              3.854361                     5               33.0765
329188256              3.854361                     5               35.5365
329188256              3.854361                     5               37.9965
329188256              3.854361                     5               40.4565
329188256              3.854361                     5               42.9165
329188256              3.854361                     5               45.3765
329188256              3.854361                     5               47.8365
329188256              4.568067                     5               34.3065
329188256              4.568067                     5               36.7665
329188224              4.568067                     5               39.2265
329188224              4.568067                     5               41.6865
329188224              4.568067                     5               44.1465
329188224              4.568067                     5               46.6065
329188224              4.568067                     5               49.0665
329188224               6.70953                     5               33.0765
329188224               6.70953                     5               35.5365
329188224               6.70953                     5               37.9965
329188224               6.70953                     5               40.4565
329188224               6.70953                     5               42.9165
329188224               6.70953                     5               45.3765
329188224               6.70953                     5               47.8365
329188224              5.995823                     5               34.3065
329188224              5.995823                     5               36.7665
329188224              5.995823                     5               39.2265
329188224              5.995823                     5               41.6865
329188224              5.995823                     5               44.1465
329188224              5.995823                     5               46.6065
329188224              5.995823                     5               49.0665
329188224              8.137286                     5               33.0765
329188224              8.137286                     5               35.5365
329188224              8.137286                     5               37.9965
329188224              8.137286                     5               40.4565
329188224              8.137286                     5               42.9165
329188224              8.137286                     5               45.3765
329188224              8.137286                     5               47.8365
329188224              8.850992                     5               34.3065
329188224              8.850992                     5               36.7665
329188224              8.850992                     5               39.2265
329188224              8.850992                     5               41.6865
329188224              8.850992                     5               44.1465
329188224              8.850992                     5               46.6065
329188224              8.850992                     5               49.0665
329188224             10.992455                     5               33.0765
329188224             10.992455                     5               35.5365
329188224             10.992455                     5               37.9965
329188224             10.992455                     5               40.4565
329188224             10.992455                     5               42.9165
329188224             10.992455                     5               45.3765
329188224             10.992455                     5               47.8365
329188224             10.278748                     5               34.3065
329188224             10.278748                     5               36.7665
329188224             10.278748                     5               39.2265
329188224             10.278748                     5               41.6865
329188224             10.278748                     5               44.1465
329188224             10.278748                     5               46.6065
329188224             10.278748                     5               49.0665
329188224             12.420211                     5               33.0765
329188224             12.420211                     5               35.5365
329188224             12.420211                     5               37.9965
329188224             12.420211                     5               40.4565
329188224             12.420211                     5               42.9165
329188224             12.420211                     5               45.3765
329188224             12.420211                     5               47.8365
329188224             13.133917                     5               34.3065
329188224             13.133917                     5               36.7665
329188224             13.133917                     5               39.2265
329188224             13.133917                     5               41.6865
329188224             13.133917                     5               44.1465
329188224             13.133917                     5               46.6065
329188224             13.133917                     5               49.0665
329188224              15.27538                     5               33.0765
329188224              15.27538                     5               35.5365
329188224              15.27538                     5               37.9965
329188224              15.27538                     5               40.4565
329188224              15.27538                     5               42.9165
329188224              15.27538                     5               45.3765
329188224              15.27538                     5               47.8365
329188224             14.561673                     5               34.3065
329188224             14.561673                     5               36.7665
329188224             14.561673                     5               39.2265
329188224             14.561673                     5               41.6865
329188224             14.561673                     5               44.1465
329188224             14.561673                     5               46.6065
329188224             14.561673                     5               49.0665
329188224             16.703136                     5               33.0765
329188224             16.703136                     5               35.5365
329188224             16.703136                     5               37.9965
329188224             16.703136                     5               40.4565
329188224             16.703136                     5               42.9165
329188224             16.703136                     5               45.3765
329188224             16.703136                     5               47.8365
329188256             16.846699                     5     0.054000000000002
329188256               2.28287                     5     0.054000000000002
329188256              4.000151                     5    0.0549999999999997
329188256              6.565795                     5     0.054000000000002
329188256              8.283076                     5    0.0549999999999997
329188256              10.84872                     5     0.054000000000002
329188256             12.566001                     5    0.0549999999999997
329188256             15.131645                     5     0.054000000000002
329188224             17.091783                     5                8.5655
329188224             17.091783                     5               12.8265
329188224             17.091783                     5               17.0875
329188224             17.091783                     5                21.348
329188224             17.091783                     5                 9.986
329188224             17.091783                     5               14.2465
329188224             17.091783                     5               18.5075
329188224             17.091783                     5               22.7685
329188224             15.868066                     5                10.696
329188224             15.868066                     5                14.957
329188224             15.868066                     5               19.2175
329188224             15.868066                     5               23.4785
329188224             15.868066                     5                7.8555
329188224             15.868066                     5               12.1165
329188224             15.868066                     5                16.377
329188224             15.868066                     5                20.638
329188224             14.644348                     5                8.5655
329188224             14.644348                     5               12.8265
329188224             14.644348                     5               17.0875
329188224             14.644348                     5                21.348
329188224             13.420631                     5                10.696
329188224             13.420631                     5                14.957
329188224             13.420631                     5               19.2175
329188224             13.420631                     5               23.4785
329188224             14.644348                     5                 9.986
329188224             14.644348                     5               14.2465
329188224             14.644348                     5               18.5075
329188224             14.644348                     5               22.7685
329188224             13.420631                     5                7.8555
329188224             13.420631                     5               12.1165
329188224             13.420631                     5                16.377
329188224             13.420631                     5                20.638
329188224             12.197085                     5                8.5655
329188224             12.197085                     5               12.8265
329188224             12.197085                     5               17.0875
329188224             12.197085                     5                21.348
329188224             10.973368                     5                10.696
329188224             10.973368                     5                14.957
329188224             10.973368                     5               19.2175
329188224             10.973368                     5               23.4785
329188224             12.197085                     5                 9.986
329188224             12.197085                     5               14.2465
329188224             12.197085                     5               18.5075
329188224             12.197085                     5               22.7685
329188224             10.973368                     5                7.8555
329188224             10.973368                     5               12.1165
329188224             10.973368                     5                16.377
329188224             10.973368                     5                20.638
329188224               9.74965                     5                8.5655
329188224               9.74965                     5               12.8265
329188224               9.74965                     5               17.0875
329188224               9.74965                     5                21.348
329188224              8.525933                     5                10.696
329188224              8.525933                     5                14.957
329188224              8.525933                     5               19.2175
329188224              8.525933                     5               23.4785
329188224               9.74965                     5                 9.986
329188224               9.74965                     5               14.2465
329188224               9.74965                     5               18.5075
329188224               9.74965                     5               22.7685
329188224              8.525933                     5                7.8555
329188224              8.525933                     5               12.1165
329188224              8.525933                     5                16.377
329188224              8.525933                     5                20.638
329188224              7.302216                     5                8.5655
329188224              7.302216                     5               12.8265
329188224              7.302216                     5               17.0875
329188224              7.302216                     5                21.348
329188224              6.078498                     5                10.696
329188224              6.078498                     5                14.957
329188224              6.078498                     5               19.2175
329188224              6.078498                     5               23.4785
329188224              7.302216                     5                 9.986
329188224              7.302216                     5               14.2465
329188224              7.302216                     5               18.5075
329188224              7.302216                     5               22.7685
329188224              6.078498                     5                7.8555
329188224              6.078498                     5               12.1165
329188224              6.078498                     5                16.377
329188224              6.078498                     5                20.638
329188224              4.854781                     5                8.5655
329188224              4.854781                     5               12.8265
329188224              4.854781                     5               17.0875
329188224              4.854781                     5                21.348
329188224              3.631235                     5                10.696
329188224              3.631235                     5                14.957
329188224              3.631235                     5               19.2175
329188224              3.631235                     5               23.4785
329188224              4.854781                     5                 9.986
329188224              4.854781                     5               14.2465
329188224              4.854781                     5               18.5075
329188224              4.854781                     5               22.7685
329188224              3.631235                     5                7.8555
329188224              3.631235                     5               12.1165
329188224              3.631235                     5                16.377
329188224              3.631235                     5                20.638
329188224              2.407518                     5                8.5655
329188224              2.407518                     5               12.8265
329188224              2.407518                     5               17.0875
329188224              2.407518                     5                21.348
329188224                1.1838                     5                10.696
329188224                1.1838                     5                14.957
329188224                1.1838                     5               19.2175
329188224                1.1838                     5               23.4785
329188224              2.407518                     5                 9.986
329188224              2.407518                     5               14.2465
329188224              2.407518                     5               18.5075
329188224              2.407518                     5               22.7685
329188224                1.1838                     5                7.8555
329188224                1.1838                     5               12.1165
329188224                1.1838                     5                16.377
329188224                1.1838                     5                20.638
329188256             15.865667                     5                6.7155
329188256              13.42303                     5                6.7155
329188256             10.975766                     5                6.7155
329188256              8.528332                     5                6.7155
329188256              6.080897                     5                6.7155
329188256              3.633634                     5                6.7155
329188256              1.181402                     5                6.7155
329188256             16.138231              2.751567             28.139104
329188256               7.96162              3.887734             24.992145
329188256             15.012135              8.620189                  23.5
329188256              7.366834              7.894454             25.910151
329188256             11.055975              2.529741             23.950026
329188256             12.958489               4.04588             28.003281
329188256             15.802619              6.081869             24.152329
329188256              0.857181              6.232398             24.141201
329188256             14.247857              5.982347             25.978273
329188256              1.783228              1.857452             28.685127
329188256              2.472984               3.95425             26.148876
329188256              8.980719              6.829436             25.756556
329188256              4.817162              5.573584              30.75356
329188256             10.689445               2.58159             28.157081
329188256             10.702868              4.581622             25.290882
329188256             16.593928              5.001168             27.358839
329188256             16.031566              6.654453             28.931582
329188256             13.232939              7.569173              27.54235
329188256              1.602235              2.178475             29.097117
329188256               5.77113              4.120525             31.030711
329188256               3.76777              4.648394             27.769514
329188256             12.715508              5.816881                    33
329188256               1.59848               1.25479             30.306331
329188256             11.016795              0.447461             31.151698
329188256              4.532812              1.638399             32.921139
329188256               3.29539              5.081699             30.082976
329188256             11.489396              5.569645             31.358934
329188256             10.276597              7.275214             26.232424
329188224              9.860873              4.375444             24.520052
329188224              9.320554              3.170363             24.230539
329188224              3.582217              3.320103             24.668991
329188224              0.149095              5.543047              26.56318
329188224              9.654479               9.96667                  23.5
329188224             13.738805               3.49353             24.100619
329188224               2.03952              6.954114             25.804244
329188224              9.392661              1.223013                  23.5
329188224             14.057802              1.350376                  23.5
329188224             13.750242              0.742702             25.314665
329188224              9.589085              9.195562             24.335708
329188224              6.202349              5.897568             25.916269
329188224              5.433584              6.974041             26.358405
329188224             13.616579              3.064476             25.098233
329188224             16.721159              5.894702             30.614638
329188224              8.636869               9.43894             25.781887
329188224             11.221657              0.844643              27.80822
329188224              3.862328              4.100371             27.582067
329188224             10.602986              9.289161             29.358865
329188224             12.113364              1.914153             24.789622
329188224             11.618224              2.070732             24.080991
329188224              6.819499              2.490377             25.735273
329188224              7.197914              0.340945             32.650545
329188224              4.264762              6.353008                    33
329188224              7.572467              9.031866             31.378811
329188224              7.286489              6.715079             29.691765
329188224             16.879237              7.962752             32.253252
329188224              1.255187              2.951719             28.167865
329188224              7.087847              0.691717                    33
329188224              0.307922              0.887079             29.095436
329188224             13.849873              7.262592             29.033088
329188224             14.092074              7.947877             31.709452
329188224              2.496336                0.3862             30.078391
300
Atoms. Timestep: 9
329188256      0.28778641218697                     5      34.3089268811283
329188256      0.28778641218697                     5      36.7689268811283
329188256      0.28778641218697                     5      39.2289268811283
329188256      0.28778641218697                     5      41.6889268811283
329188256      0.28778641218697                     5      44.1489268811283
329188256      0.28778641218697                     5      46.6089268811283
329188256      0.28778641218697                     5      49.0689268811283
329188256      2.42924941218697                     5      33.0789268811283
329188256      2.42924941218697                     5      35.5389268811283
329188256      2.42924941218697                     5      37.9989268811283
329188256      2.42924941218697                     5      40.4589268811283
329188256      2.42924941218697                     5      42.9189268811283
329188256      2.42924941218697                     5      45.3789268811283
329188256      2.42924941218697                     5      47.8389268811283
329188256      1.71554241218697                     5      34.3089268811283
329188256      1.71554241218697                     5      36.7689268811283
329188256      1.71554241218697                     5      39.2289268811283
329188256      1.71554241218697                     5      41.6889268811283
329188256      1.71554241218697                     5      44.1489268811283
329188256      1.71554241218697                     5      46.6089268811283
329188256      1.71554241218697                     5      49.0689268811283
329188256      3.85700541218697                     5      33.0789268811283
329188256      3.85700541218697                     5      35.5389268811283
329188256      3.85700541218697                     5      37.9989268811283
329188256      3.85700541218697                     5      40.4589268811283
329188256      3.85700541218697                     5      42.9189268811283
329188256      3.85700541218697                     5      45.3789268811283
329188256      3.85700541218697                     5      47.8389268811283
329188256      4.57071141218697                     5      34.3089268811283
329188256      4.57071141218697                     5      36.7689268811283
329188224      4.57071141218697                     5      39.2289268811283
329188224      4.57071141218697                     5      41.6889268811283
329188224      4.57071141218697                     5      44.1489268811283
329188224      4.57071141218697                     5      46.6089268811283
329188224      4.57071141218697                     5      49.0689268811283
329188224      6.71217441218697                     5      33.0789268811283
329188224      6.71217441218697                     5      35.5389268811283
329188224      6.71217441218697                     5      37.9989268811283
329188224      6.71217441218697                     5      40.4589268811283
329188224      6.71217441218697                     5      42.9189268811283
329188224      6.71217441218697                     5      45.3789268811283
329188224      6.71217441218697                     5      47.8389268811283
329188224      5.99846741218697                     5      34.3089268811283
329188224      5.99846741218697                     5      36.7689268811283
329188224      5.99846741218697                     5      39.2289268811283
329188224      5.99846741218697                     5      41.6889268811283
329188224      5.99846741218697                     5      44.1489268811283
329188224      5.99846741218697                     5      46.6089268811283
329188224      5.99846741218697                     5      49.0689268811283
329188224      8.13993041218697                     5      33.0789268811283
329188224      8.13993041218697                     5      35.5389268811283
329188224      8.13993041218697                     5      37.9989268811283
329188224      8.13993041218697                     5      40.4589268811283
329188224      8.13993041218697                     5      42.9189268811283
329188224      8.13993041218697                     5      45.3789268811283
329188224      8.13993041218697                     5      47.8389268811283
329188224      8.85363641218697                     5      34.3089268811283
329188224      8.85363641218697                     5      36.7689268811283
329188224      8.85363641218697                     5      39.2289268811283
329188224      8.85363641218697                     5      41.6889268811283
329188224      8.85363641218697                     5      44.1489268811283
329188224      8.85363641218697                     5      46.6089268811283
329188224      8.85363641218697                     5      49.0689268811283
329188224       10.995099412187                     5      33.0789268811283
329188224       10.995099412187                     5      35.5389268811283
329188224       10.995099412187                     5      37.9989268811283
329188224       10.995099412187                     5      40.4589268811283
329188224       10.995099412187                     5      42.9189268811283
329188224       10.995099412187                     5      45.3789268811283
329188224       10.995099412187                     5      47.8389268811283
329188224       10.281392412187                     5      34.3089268811283
329188224       10.281392412187                     5      36.7689268811283
329188224       10.281392412187                     5      39.2289268811283
329188224       10.281392412187                     5      41.6889268811283
329188224       10.281392412187                     5      44.1489268811283
329188224       10.281392412187                     5      46.6089268811283
329188224       10.281392412187                     5      49.0689268811283
329188224       12.422855412187                     5      33.0789268811283
329188224       12.422855412187                     5      35.5389268811283
329188224       12.422855412187                     5      37.9989268811283
329188224       12.422855412187                     5      40.4589268811283
329188224       12.422855412187                     5      42.9189268811283
329188224       12.422855412187                     5      45.3789268811283
329188224       12.422855412187                     5      47.8389268811283
329188224       13.136561412187                     5      34.3089268811283
329188224       13.136561412187                     5      36.7689268811283
329188224       13.136561412187                     5      39.2289268811283
329188224       13.136561412187                     5      41.6889268811283
329188224       13.136561412187                     5      44.1489268811283
329188224       13.136561412187                     5      46.6089268811283
329188224       13.136561412187                     5      49.0689268811283
329188224       15.278024412187                     5      33.0789268811283
329188224       15.278024412187                     5      35.5389268811283
329188224       15.278024412187                     5      37.9989268811283