search structure

300 atoms
2  atom types

0   17.131700 xlo xhi
0   10.000000 ylo yhi
0   50.000000 zlo zhi

Atoms

1 2 0.285142 5.000000 34.306500
2 2 0.285142 5.000000 36.766500
3 2 0.285142 5.000000 39.226500
4 2 0.285142 5.000000 41.686500
5 2 0.285142 5.000000 44.146500
6 2 0.285142 5.000000 46.606500
7 2 0.285142 5.000000 49.066500
8 2 2.426605 5.000000 33.076500
9 2 2.426605 5.000000 35.536500
10 2 2.426605 5.000000 37.996500
11 2 2.426605 5.000000 40.456500
12 2 2.426605 5.000000 42.916500
13 2 2.426605 5.000000 45.376500
14 2 2.426605 5.000000 47.836500
15 2 1.712898 5.000000 34.306500
16 2 1.712898 5.000000 36.766500
17 2 1.712898 5.000000 39.226500
18 2 1.712898 5.000000 41.686500
19 2 1.712898 5.000000 44.146500
20 2 1.712898 5.000000 46.606500
21 2 1.712898 5.000000 49.066500
22 2 3.854361 5.000000 33.076500
23 2 3.854361 5.000000 35.536500
24 2 3.854361 5.000000 37.996500
25 2 3.854361 5.000000 40.456500
26 2 3.854361 5.000000 42.916500
27 2 3.854361 5.000000 45.376500
28 2 3.854361 5.000000 47.836500
29 2 4.568067 5.000000 34.306500
30 2 4.568067 5.000000 36.766500
31 1 4.568067 5.000000 39.226500
32 1 4.568067 5.000000 41.686500
33 1 4.568067 5.000000 44.146500
34 1 4.568067 5.000000 46.606500
35 1 4.568067 5.000000 49.066500
36 1 6.709530 5.000000 33.076500
37 1 6.709530 5.000000 35.536500
38 1 6.709530 5.000000 37.996500
39 1 6.709530 5.000000 40.456500
40 1 6.709530 5.000000 42.916500
41 1 6.709530 5.000000 45.376500
42 1 6.709530 5.000000 47.836500
43 1 5.995823 5.000000 34.306500
44 1 5.995823 5.000000 36.766500
45 1 5.995823 5.000000 39.226500
46 1 5.995823 5.000000 41.686500
47 1 5.995823 5.000000 44.146500
48 1 5.995823 5.000000 46.606500
49 1 5.995823 5.000000 49.066500
50 1 8.137286 5.000000 33.076500
51 1 8.137286 5.000000 35.536500
52 1 8.137286 5.000000 37.996500
53 1 8.137286 5.000000 40.456500
54 1 8.137286 5.000000 42.916500
55 1 8.137286 5.000000 45.376500
56 1 8.137286 5.000000 47.836500
57 1 8.850992 5.000000 34.306500
58 1 8.850992 5.000000 36.766500
59 1 8.850992 5.000000 39.226500
60 1 8.850992 5.000000 41.686500
61 1 8.850992 5.000000 44.146500
62 1 8.850992 5.000000 46.606500
63 1 8.850992 5.000000 49.066500
64 1 10.992455 5.000000 33.076500
65 1 10.992455 5.000000 35.536500
66 1 10.992455 5.000000 37.996500
67 1 10.992455 5.000000 40.456500
68 1 10.992455 5.000000 42.916500
69 1 10.992455 5.000000 45.376500
70 1 10.992455 5.000000 47.836500
71 1 10.278748 5.000000 34.306500
72 1 10.278748 5.000000 36.766500
73 1 10.278748 5.000000 39.226500
74 1 10.278748 5.000000 41.686500
75 1 10.278748 5.000000 44.146500
76 1 10.278748 5.000000 46.606500
77 1 10.278748 5.000000 49.066500
78 1 12.420211 5.000000 33.076500
79 1 12.420211 5.000000 35.536500
80 1 12.420211 5.000000 37.996500
81 1 12.420211 5.000000 40.456500
82 1 12.420211 5.000000 42.916500
83 1 12.420211 5.000000 45.376500
84 1 12.420211 5.000000 47.836500
85 1 13.133917 5.000000 34.306500
86 1 13.133917 5.000000 36.766500
87 1 13.133917 5.000000 39.226500
88 1 13.133917 5.000000 41.686500
89 1 13.133917 5.000000 44.146500
90 1 13.133917 5.000000 46.606500
91 1 13.133917 5.000000 49.066500
92 1 15.275380 5.000000 33.076500
93 1 15.275380 5.000000 35.536500
94 1 15.275380 5.000000 37.996500
95 1 15.275380 5.000000 40.456500
96 1 15.275380 5.000000 42.916500
97 1 15.275380 5.000000 45.376500
98 1 15.275380 5.000000 47.836500
99 1 14.561673 5.000000 34.306500
100 1 14.561673 5.000000 36.766500
101 1 14.561673 5.000000 39.226500
102 1 14.561673 5.000000 41.686500
103 1 14.561673 5.000000 44.146500
104 1 14.561673 5.000000 46.606500
105 1 14.561673 5.000000 49.066500
106 1 16.703136 5.000000 33.076500
107 1 16.703136 5.000000 35.536500
108 1 16.703136 5.000000 37.996500
109 1 16.703136 5.000000 40.456500
110 1 16.703136 5.000000 42.916500
111 1 16.703136 5.000000 45.376500
112 1 16.703136 5.000000 47.836500
113 2 16.846699 5.000000 50.054000
114 2 2.282870 5.000000 50.054000
115 2 4.000151 5.000000 50.055000
116 2 6.565795 5.000000 50.054000
117 2 8.283076 5.000000 50.055000
118 2 10.848720 5.000000 50.054000
119 2 12.566001 5.000000 50.055000
120 2 15.131645 5.000000 50.054000
121 1 -0.039917 5.000000 8.565500
122 1 -0.039917 5.000000 12.826500
123 1 -0.039917 5.000000 17.087500
124 1 -0.039917 5.000000 21.348000
125 1 -0.039917 5.000000 9.986000
126 1 -0.039917 5.000000 14.246500
127 1 -0.039917 5.000000 18.507500
128 1 -0.039917 5.000000 22.768500
129 1 15.868066 5.000000 10.696000
130 1 15.868066 5.000000 14.957000
131 1 15.868066 5.000000 19.217500
132 1 15.868066 5.000000 23.478500
133 1 15.868066 5.000000 7.855500
134 1 15.868066 5.000000 12.116500
135 1 15.868066 5.000000 16.377000
136 1 15.868066 5.000000 20.638000
137 1 14.644348 5.000000 8.565500
138 1 14.644348 5.000000 12.826500
139 1 14.644348 5.000000 17.087500
140 1 14.644348 5.000000 21.348000
141 1 13.420631 5.000000 10.696000
142 1 13.420631 5.000000 14.957000
143 1 13.420631 5.000000 19.217500
144 1 13.420631 5.000000 23.478500
145 1 14.644348 5.000000 9.986000
146 1 14.644348 5.000000 14.246500
147 1 14.644348 5.000000 18.507500
148 1 14.644348 5.000000 22.768500
149 1 13.420631 5.000000 7.855500
150 1 13.420631 5.000000 12.116500
151 1 13.420631 5.000000 16.377000
152 1 13.420631 5.000000 20.638000
153 1 12.197085 5.000000 8.565500
154 1 12.197085 5.000000 12.826500
155 1 12.197085 5.000000 17.087500
156 1 12.197085 5.000000 21.348000
157 1 10.973368 5.000000 10.696000
158 1 10.973368 5.000000 14.957000
159 1 10.973368 5.000000 19.217500
160 1 10.973368 5.000000 23.478500
161 1 12.197085 5.000000 9.986000
162 1 12.197085 5.000000 14.246500
163 1 12.197085 5.000000 18.507500
164 1 12.197085 5.000000 22.768500
165 1 10.973368 5.000000 7.855500
166 1 10.973368 5.000000 12.116500
167 1 10.973368 5.000000 16.377000
168 1 10.973368 5.000000 20.638000
169 1 9.749650 5.000000 8.565500
170 1 9.749650 5.000000 12.826500
171 1 9.749650 5.000000 17.087500
172 1 9.749650 5.000000 21.348000
173 1 8.525933 5.000000 10.696000
174 1 8.525933 5.000000 14.957000
175 1 8.525933 5.000000 19.217500
176 1 8.525933 5.000000 23.478500
177 1 9.749650 5.000000 9.986000
178 1 9.749650 5.000000 14.246500
179 1 9.749650 5.000000 18.507500
180 1 9.749650 5.000000 22.768500
181 1 8.525933 5.000000 7.855500
182 1 8.525933 5.000000 12.116500
183 1 8.525933 5.000000 16.377000
184 1 8.525933 5.000000 20.638000
185 1 7.302216 5.000000 8.565500
186 1 7.302216 5.000000 12.826500
187 1 7.302216 5.000000 17.087500
188 1 7.302216 5.000000 21.348000
189 1 6.078498 5.000000 10.696000
190 1 6.078498 5.000000 14.957000
191 1 6.078498 5.000000 19.217500
192 1 6.078498 5.000000 23.478500
193 1 7.302216 5.000000 9.986000
194 1 7.302216 5.000000 14.246500
195 1 7.302216 5.000000 18.507500
196 1 7.302216 5.000000 22.768500
197 1 6.078498 5.000000 7.855500
198 1 6.078498 5.000000 12.116500
199 1 6.078498 5.000000 16.377000
200 1 6.078498 5.000000 20.638000
201 1 4.854781 5.000000 8.565500
202 1 4.854781 5.000000 12.826500
203 1 4.854781 5.000000 17.087500
204 1 4.854781 5.000000 21.348000
205 1 3.631235 5.000000 10.696000
206 1 3.631235 5.000000 14.957000
207 1 3.631235 5.000000 19.217500
208 1 3.631235 5.000000 23.478500
209 1 4.854781 5.000000 9.986000
210 1 4.854781 5.000000 14.246500
211 1 4.854781 5.000000 18.507500
212 1 4.854781 5.000000 22.768500
213 1 3.631235 5.000000 7.855500
214 1 3.631235 5.000000 12.116500
215 1 3.631235 5.000000 16.377000
216 1 3.631235 5.000000 20.638000
217 1 2.407518 5.000000 8.565500
218 1 2.407518 5.000000 12.826500
219 1 2.407518 5.000000 17.087500
220 1 2.407518 5.000000 21.348000
221 1 1.183800 5.000000 10.696000
222 1 1.183800 5.000000 14.957000
223 1 1.183800 5.000000 19.217500
224 1 1.183800 5.000000 23.478500
225 1 2.407518 5.000000 9.986000
226 1 2.407518 5.000000 14.246500
227 1 2.407518 5.000000 18.507500
228 1 2.407518 5.000000 22.768500
229 1 1.183800 5.000000 7.855500
230 1 1.183800 5.000000 12.116500
231 1 1.183800 5.000000 16.377000
232 1 1.183800 5.000000 20.638000
233 2 15.865667 5.000000 6.715500
234 2 13.423030 5.000000 6.715500
235 2 10.975766 5.000000 6.715500
236 2 8.528332 5.000000 6.715500
237 2 6.080897 5.000000 6.715500
238 2 3.633634 5.000000 6.715500
239 2 1.181402 5.000000 6.715500
240 2 16.138231 2.751567 28.139104
241 2 7.961620 3.887734 24.992145
242 2 15.012135 8.620189 23.500000
243 2 7.366834 7.894454 25.910151
244 2 11.055975 2.529741 23.950026
245 2 12.958489 4.045880 28.003281
246 2 15.802619 6.081869 24.152329
247 2 0.857181 6.232398 24.141201
248 2 14.247857 5.982347 25.978273
249 2 1.783228 1.857452 28.685127
250 2 2.472984 3.954250 26.148876
251 2 8.980719 6.829436 25.756556
252 2 4.817162 5.573584 30.753560
253 2 10.689445 2.581590 28.157081
254 2 10.702868 4.581622 25.290882
255 2 16.593928 5.001168 27.358839
256 2 16.031566 6.654453 28.931582
257 2 13.232939 7.569173 27.542350
258 2 1.602235 2.178475 29.097117
259 2 5.771130 4.120525 31.030711
260 2 3.767770 4.648394 27.769514
261 2 12.715508 5.816881 33.000000
262 2 1.598480 1.254790 30.306331
263 2 11.016795 0.447461 31.151698
264 2 4.532812 1.638399 32.921139
265 2 3.295390 5.081699 30.082976
266 2 11.489396 5.569645 31.358934
267 2 10.276597 7.275214 26.232424
268 1 9.860873 4.375444 24.520052
269 1 9.320554 3.170363 24.230539
270 1 3.582217 3.320103 24.668991
271 1 0.149095 5.543047 26.563180
272 1 9.654479 9.966670 23.500000
273 1 13.738805 3.493530 24.100619
274 1 2.039520 6.954114 25.804244
275 1 9.392661 1.223013 23.500000
276 1 14.057802 1.350376 23.500000
277 1 13.750242 0.742702 25.314665
278 1 9.589085 9.195562 24.335708
279 1 6.202349 5.897568 25.916269
280 1 5.433584 6.974041 26.358405
281 1 13.616579 3.064476 25.098233
282 1 16.721159 5.894702 30.614638
283 1 8.636869 9.438940 25.781887
284 1 11.221657 0.844643 27.808220
285 1 3.862328 4.100371 27.582067
286 1 10.602986 9.289161 29.358865
287 1 12.113364 1.914153 24.789622
288 1 11.618224 2.070732 24.080991
289 1 6.819499 2.490377 25.735273
290 1 7.197914 0.340945 32.650545
291 1 4.264762 6.353008 33.000000
292 1 7.572467 9.031866 31.378811
293 1 7.286489 6.715079 29.691765
294 1 16.879237 7.962752 32.253252
295 1 1.255187 2.951719 28.167865
296 1 7.087847 0.691717 33.000000
297 1 0.307922 0.887079 29.095436
298 1 13.849873 7.262592 29.033088
299 1 14.092074 7.947877 31.709452
300 1 2.496336 0.386200 30.078391
