300
Atoms. Timestep: 0
376456096                3.4632                     5               34.3065
376456096                3.4632                     5               36.7665
376456096                3.4632                     5               39.2265
376456096                3.4632                     5               41.6865
376456096                3.4632                     5               44.1465
376456096                3.4632                     5               46.6065
376456096                3.4632                     5               49.0665
376456096              5.604663                     5               33.0765
376456096              5.604663                     5               35.5365
376456096              5.604663                     5               37.9965
376456096              5.604663                     5               40.4565
376456096              5.604663                     5               42.9165
376456096              5.604663                     5               45.3765
376456096              5.604663                     5               47.8365
376456096              4.890956                     5               34.3065
376456096              4.890956                     5               36.7665
376456096              4.890956                     5               39.2265
376456096              4.890956                     5               41.6865
376456096              4.890956                     5               44.1465
376456096              4.890956                     5               46.6065
376456096              4.890956                     5               49.0665
376456096              7.032419                     5               33.0765
376456096              7.032419                     5               35.5365
376456096              7.032419                     5               37.9965
376456096              7.032419                     5               40.4565
376456096              7.032419                     5               42.9165
376456096              7.032419                     5               45.3765
376456096              7.032419                     5               47.8365
376456096              7.746125                     5               34.3065
376456096              7.746125                     5               36.7665
376456064              7.746125                     5               39.2265
376456064              7.746125                     5               41.6865
376456064              7.746125                     5               44.1465
376456064              7.746125                     5               46.6065
376456064              7.746125                     5               49.0665
376456064              9.887588                     5               33.0765
376456064              9.887588                     5               35.5365
376456064              9.887588                     5               37.9965
376456064              9.887588                     5               40.4565
376456064              9.887588                     5               42.9165
376456064              9.887588                     5               45.3765
376456064              9.887588                     5               47.8365
376456064              9.173881                     5               34.3065
376456064              9.173881                     5               36.7665
376456064              9.173881                     5               39.2265
376456064              9.173881                     5               41.6865
376456064              9.173881                     5               44.1465
376456064              9.173881                     5               46.6065
376456064              9.173881                     5               49.0665
376456064             11.315344                     5               33.0765
376456064             11.315344                     5               35.5365
376456064             11.315344                     5               37.9965
376456064             11.315344                     5               40.4565
376456064             11.315344                     5               42.9165
376456064             11.315344                     5               45.3765
376456064             11.315344                     5               47.8365
376456064              12.02905                     5               34.3065
376456064              12.02905                     5               36.7665
376456064              12.02905                     5               39.2265
376456064              12.02905                     5               41.6865
376456064              12.02905                     5               44.1465
376456064              12.02905                     5               46.6065
376456064              12.02905                     5               49.0665
376456064             14.170513                     5               33.0765
376456064             14.170513                     5               35.5365
376456064             14.170513                     5               37.9965
376456064             14.170513                     5               40.4565
376456064             14.170513                     5               42.9165
376456064             14.170513                     5               45.3765
376456064             14.170513                     5               47.8365
376456064             13.456806                     5               34.3065
376456064             13.456806                     5               36.7665
376456064             13.456806                     5               39.2265
376456064             13.456806                     5               41.6865
376456064             13.456806                     5               44.1465
376456064             13.456806                     5               46.6065
376456064             13.456806                     5               49.0665
376456064             15.598269                     5               33.0765
376456064             15.598269                     5               35.5365
376456064             15.598269                     5               37.9965
376456064             15.598269                     5               40.4565
376456064             15.598269                     5               42.9165
376456064             15.598269                     5               45.3765
376456064             15.598269                     5               47.8365
376456064             16.311975                     5               34.3065
376456064             16.311975                     5               36.7665
376456064             16.311975                     5               39.2265
376456064             16.311975                     5               41.6865
376456064             16.311975                     5               44.1465
376456064             16.311975                     5               46.6065
376456064             16.311975                     5               49.0665
376456064              1.321738                     5               33.0765
376456064              1.321738                     5               35.5365
376456064              1.321738                     5               37.9965
376456064              1.321738                     5               40.4565
376456064              1.321738                     5               42.9165
376456064              1.321738                     5               45.3765
376456064              1.321738                     5               47.8365
376456064              0.608031                     5               34.3065
376456064              0.608031                     5               36.7665
376456064              0.608031                     5               39.2265
376456064              0.608031                     5               41.6865
376456064              0.608031                     5               44.1465
376456064              0.608031                     5               46.6065
376456064              0.608031                     5               49.0665
376456064              2.749494                     5               33.0765
376456064              2.749494                     5               35.5365
376456064              2.749494                     5               37.9965
376456064              2.749494                     5               40.4565
376456064              2.749494                     5               42.9165
376456064              2.749494                     5               45.3765
376456064              2.749494                     5               47.8365
376456096              2.893057                     5     0.054000000000002
376456096              5.460928                     5     0.054000000000002
376456096              7.178209                     5    0.0549999999999997
376456096              9.743853                     5     0.054000000000002
376456096             11.461134                     5    0.0549999999999997
376456096             14.026778                     5     0.054000000000002
376456096             15.744059                     5    0.0549999999999997
376456096              1.178003                     5     0.054000000000002
376456064             17.091783                     5                8.5655
376456064             17.091783                     5               12.8265
376456064             17.091783                     5               17.0875
376456064             17.091783                     5                21.348
376456064             17.091783                     5                 9.986
376456064             17.091783                     5               14.2465
376456064             17.091783                     5               18.5075
376456064             17.091783                     5               22.7685
376456064             15.868066                     5                10.696
376456064             15.868066                     5                14.957
376456064             15.868066                     5               19.2175
376456064             15.868066                     5               23.4785
376456064             15.868066                     5                7.8555
376456064             15.868066                     5               12.1165
376456064             15.868066                     5                16.377
376456064             15.868066                     5                20.638
376456064             14.644348                     5                8.5655
376456064             14.644348                     5               12.8265
376456064             14.644348                     5               17.0875
376456064             14.644348                     5                21.348
376456064             13.420631                     5                10.696
376456064             13.420631                     5                14.957
376456064             13.420631                     5               19.2175
376456064             13.420631                     5               23.4785
376456064             14.644348                     5                 9.986
376456064             14.644348                     5               14.2465
376456064             14.644348                     5               18.5075
376456064             14.644348                     5               22.7685
376456064             13.420631                     5                7.8555
376456064             13.420631                     5               12.1165
376456064             13.420631                     5                16.377
376456064             13.420631                     5                20.638
376456064             12.197085                     5                8.5655
376456064             12.197085                     5               12.8265
376456064             12.197085                     5               17.0875
376456064             12.197085                     5                21.348
376456064             10.973368                     5                10.696
376456064             10.973368                     5                14.957
376456064             10.973368                     5               19.2175
376456064             10.973368                     5               23.4785
376456064             12.197085                     5                 9.986
376456064             12.197085                     5               14.2465
376456064             12.197085                     5               18.5075
376456064             12.197085                     5               22.7685
376456064             10.973368                     5                7.8555
376456064             10.973368                     5               12.1165
376456064             10.973368                     5                16.377
376456064             10.973368                     5                20.638
376456064               9.74965                     5                8.5655
376456064               9.74965                     5               12.8265
376456064               9.74965                     5               17.0875
376456064               9.74965                     5                21.348
376456064              8.525933                     5                10.696
376456064              8.525933                     5                14.957
376456064              8.525933                     5               19.2175
376456064              8.525933                     5               23.4785
376456064               9.74965                     5                 9.986
376456064               9.74965                     5               14.2465
376456064               9.74965                     5               18.5075
376456064               9.74965                     5               22.7685
376456064              8.525933                     5                7.8555
376456064              8.525933                     5               12.1165
376456064              8.525933                     5                16.377
376456064              8.525933                     5                20.638
376456064              7.302216                     5                8.5655
376456064              7.302216                     5               12.8265
376456064              7.302216                     5               17.0875
376456064              7.302216                     5                21.348
376456064              6.078498                     5                10.696
376456064              6.078498                     5                14.957
376456064              6.078498                     5               19.2175
376456064              6.078498                     5               23.4785
376456064              7.302216                     5                 9.986
376456064              7.302216                     5               14.2465
376456064              7.302216                     5               18.5075
376456064              7.302216                     5               22.7685
376456064              6.078498                     5                7.8555
376456064              6.078498                     5               12.1165
376456064              6.078498                     5                16.377
376456064              6.078498                     5                20.638
376456064              4.854781                     5                8.5655
376456064              4.854781                     5               12.8265
376456064              4.854781                     5               17.0875
376456064              4.854781                     5                21.348
376456064              3.631235                     5                10.696
376456064              3.631235                     5                14.957
376456064              3.631235                     5               19.2175
376456064              3.631235                     5               23.4785
376456064              4.854781                     5                 9.986
376456064              4.854781                     5               14.2465
376456064              4.854781                     5               18.5075
376456064              4.854781                     5               22.7685
376456064              3.631235                     5                7.8555
376456064              3.631235                     5               12.1165
376456064              3.631235                     5                16.377
376456064              3.631235                     5                20.638
376456064              2.407518                     5                8.5655
376456064              2.407518                     5               12.8265
376456064              2.407518                     5               17.0875
376456064              2.407518                     5                21.348
376456064                1.1838                     5                10.696
376456064                1.1838                     5                14.957
376456064                1.1838                     5               19.2175
376456064                1.1838                     5               23.4785
376456064              2.407518                     5                 9.986
376456064              2.407518                     5               14.2465
376456064              2.407518                     5               18.5075
376456064              2.407518                     5               22.7685
376456064                1.1838                     5                7.8555
376456064                1.1838                     5               12.1165
376456064                1.1838                     5                16.377
376456064                1.1838                     5                20.638
376456096             15.865667                     5                6.7155
376456096              13.42303                     5                6.7155
376456096             10.975766                     5                6.7155
376456096              8.528332                     5                6.7155
376456096              6.080897                     5                6.7155
376456096              3.633634                     5                6.7155
376456096              1.181402                     5                6.7155
376456096              4.780076              1.477716             27.732037
376456096              9.092376              2.347264              27.39373
376456096               4.37446              7.995591             24.839786
376456096              5.670599              5.949048             24.835461
376456096              6.619468              6.747169             27.732367
376456096             12.317495              7.654116             26.749721
376456096              0.597428              7.550768             23.889922
376456096              7.561599              8.848754                  23.5
376456096              2.292319              5.282223                  23.5
376456096             15.663509               0.65036             27.303375
376456096              5.895675              4.613264             26.606084
376456096              2.842838              5.941425                  23.5
376456096              4.749277              9.760284             25.492469
376456096              9.600957              0.587708             27.560243
376456096             12.423842              3.470694             27.965415
376456096              5.992429              0.578573              24.87419
376456096              7.746498              2.400351             24.321521
376456096              0.028505               9.47866              28.07441
376456096              5.800713              0.320064             29.655625
376456096             17.016015              4.507668             30.845732
376456096              8.248981              5.060407             29.435616
376456096             11.530891              4.791143             29.508973
376456096              4.688149              4.562881             28.601772
376456096              3.442565              7.301934             29.499892
376456096              5.367645              6.973969             29.869244
376456096              5.798075              0.249753             28.418303
376456096             16.403477              1.166831             29.522891
376456096              1.840953               5.93263             32.582508
376456064             11.933734              2.891703              25.17836
376456064             13.488503              0.147396             25.709978
376456064              3.259469              4.077608             24.952106
376456064              3.348487               6.10738                  23.5
376456064              3.272078              4.825656                  23.5
376456064             12.604834              9.728729                  23.5
376456064             12.613381              5.668689                  23.5
376456064             10.984249              4.669886             24.552193
376456064              7.584821              6.106961             24.115387
376456064             11.709689              5.483462             24.074988
376456064              6.418455              9.470326             26.858993
376456064              8.521441              4.453041             28.310887
376456064              1.857275              7.410235             28.508461
376456064              0.429905              7.949902             25.712633
376456064               1.31831              5.627066             26.328277
376456064               2.88392              0.583791             29.590413
376456064             14.851441              0.185764             27.657752
376456064             12.723088              5.443096             27.113553
376456064              6.687863              0.361818             27.942165
376456064              2.595907              0.615774             25.603047
376456064              9.490791              7.445341             24.656851
376456064             10.673659              1.484593             28.001526
376456064             13.451133              9.049651             29.536583
376456064             16.334998               3.03042                    33
376456064              8.925945              2.136312             31.271189
376456064              6.155626              7.168628             31.709851
376456064              7.448415              8.820376             30.683525
376456064             13.115972              2.424161             29.634376
376456064             10.178442              4.312725                    33
376456064              3.809734              4.801884              31.42627
376456064             11.927147              5.408153             29.550507
376456064             12.836853               5.94973             27.951478
376456064              3.347391              8.962367             30.720818
300
Atoms. Timestep: 10
376456096      3.46037014667103                     5      34.3079156191086
376456096      3.46037014667103                     5      36.7679156191086
376456096      3.46037014667103                     5      39.2279156191086
376456096      3.46037014667103                     5      41.6879156191086
376456096      3.46037014667103                     5      44.1479156191086
376456096      3.46037014667103                     5      46.6079156191086
376456096      3.46037014667103                     5      49.0679156191086
376456096      5.60183314667104                     5      33.0779156191086
376456096      5.60183314667104                     5      35.5379156191086
376456096      5.60183314667104                     5      37.9979156191086
376456096      5.60183314667104                     5      40.4579156191086
376456096      5.60183314667104                     5      42.9179156191086
376456096      5.60183314667104                     5      45.3779156191086
376456096      5.60183314667104                     5      47.8379156191086
376456096      4.88812614667104                     5      34.3079156191086
376456096      4.88812614667104                     5      36.7679156191086
376456096      4.88812614667104                     5      39.2279156191086
376456096      4.88812614667104                     5      41.6879156191086
376456096      4.88812614667104                     5      44.1479156191086
376456096      4.88812614667104                     5      46.6079156191086
376456096      4.88812614667104                     5      49.0679156191086
376456096      7.02958914667103                     5      33.0779156191086
376456096      7.02958914667103                     5      35.5379156191086
376456096      7.02958914667103                     5      37.9979156191086
376456096      7.02958914667103                     5      40.4579156191086
376456096      7.02958914667103                     5      42.9179156191086
376456096      7.02958914667103                     5      45.3779156191086
376456096      7.02958914667103                     5      47.8379156191086
376456096      7.74329514667104                     5      34.3079156191086
376456096      7.74329514667104                     5      36.7679156191086
376456064      7.74329514667104                     5      39.2279156191086
376456064      7.74329514667104                     5      41.6879156191086
376456064      7.74329514667104                     5      44.1479156191086
376456064      7.74329514667104                     5      46.6079156191086
376456064      7.74329514667104                     5      49.0679156191086
376456064      9.88475814667103                     5      33.0779156191086
376456064      9.88475814667103                     5      35.5379156191086
376456064      9.88475814667103                     5      37.9979156191086
376456064      9.88475814667103                     5      40.4579156191086
376456064      9.88475814667103                     5      42.9179156191086
376456064      9.88475814667103                     5      45.3779156191086
376456064      9.88475814667103                     5      47.8379156191086
376456064      9.17105114667103                     5      34.3079156191086
376456064      9.17105114667103                     5      36.7679156191086
376456064      9.17105114667103                     5      39.2279156191086
376456064      9.17105114667103                     5      41.6879156191086
376456064      9.17105114667103                     5      44.1479156191086
376456064      9.17105114667103                     5      46.6079156191086
376456064      9.17105114667103                     5      49.0679156191086
376456064       11.312514146671                     5      33.0779156191086
376456064       11.312514146671                     5      35.5379156191086
376456064       11.312514146671                     5      37.9979156191086
376456064       11.312514146671                     5      40.4579156191086
376456064       11.312514146671                     5      42.9179156191086
376456064       11.312514146671                     5      45.3779156191086
376456064       11.312514146671                     5      47.8379156191086
376456064       12.026220146671                     5      34.3079156191086
376456064       12.026220146671                     5      36.7679156191086
376456064       12.026220146671                     5      39.2279156191086
376456064       12.026220146671                     5      41.6879156191086
376456064       12.026220146671                     5      44.1479156191086
376456064       12.026220146671                     5      46.6079156191086
376456064       12.026220146671                     5      49.0679156191086
376456064       14.167683146671                     5      33.0779156191086
376456064       14.167683146671                     5      35.5379156191086
376456064       14.167683146671                     5      37.9979156191086
376456064       14.167683146671                     5      40.4579156191086
376456064       14.167683146671                     5      42.9179156191086
376456064       14.167683146671                     5      45.3779156191086
376456064       14.167683146671                     5      47.8379156191086
376456064       13.453976146671                     5      34.3079156191086
376456064       13.453976146671                     5      36.7679156191086
376456064       13.453976146671                     5      39.2279156191086
376456064       13.453976146671                     5      41.6879156191086
376456064       13.453976146671                     5      44.1479156191086
376456064       13.453976146671                     5      46.6079156191086
376456064       13.453976146671                     5      49.0679156191086
376456064       15.595439146671                     5      33.0779156191086
376456064       15.595439146671                     5      35.5379156191086
376456064       15.595439146671                     5      37.9979156191086
376456064       15.595439146671                     5      40.4579156191086
376456064       15.595439146671                     5      42.9179156191086
376456064       15.595439146671                     5      45.3779156191086
376456064       15.595439146671                     5      47.8379156191086
376456064       16.309145146671                     5      34.3079156191086
376456064       16.309145146671                     5      36.7679156191086
376456064       16.309145146671                     5      39.2279156191086
376456064       16.309145146671                     5      41.6879156191086
376456064       16.309145146671                     5      44.1479156191086
376456064       16.309145146671                     5      46.6079156191086
376456064       16.309145146671                     5      49.0679156191086
376456064      1.31890814667103                     5      33.0779156191086
376456064      1.31890814667103                     5      35.5379156191086
376456064      1.31890814667103                     5      37.9979156191086