search structure

300 atoms
2  atom types

0   17.131700 xlo xhi
0   10.000000 ylo yhi
0   50.000000 zlo zhi

Atoms

1 2 3.463200 5.000000 34.306500
2 2 3.463200 5.000000 36.766500
3 2 3.463200 5.000000 39.226500
4 2 3.463200 5.000000 41.686500
5 2 3.463200 5.000000 44.146500
6 2 3.463200 5.000000 46.606500
7 2 3.463200 5.000000 49.066500
8 2 5.604663 5.000000 33.076500
9 2 5.604663 5.000000 35.536500
10 2 5.604663 5.000000 37.996500
11 2 5.604663 5.000000 40.456500
12 2 5.604663 5.000000 42.916500
13 2 5.604663 5.000000 45.376500
14 2 5.604663 5.000000 47.836500
15 2 4.890956 5.000000 34.306500
16 2 4.890956 5.000000 36.766500
17 2 4.890956 5.000000 39.226500
18 2 4.890956 5.000000 41.686500
19 2 4.890956 5.000000 44.146500
20 2 4.890956 5.000000 46.606500
21 2 4.890956 5.000000 49.066500
22 2 7.032419 5.000000 33.076500
23 2 7.032419 5.000000 35.536500
24 2 7.032419 5.000000 37.996500
25 2 7.032419 5.000000 40.456500
26 2 7.032419 5.000000 42.916500
27 2 7.032419 5.000000 45.376500
28 2 7.032419 5.000000 47.836500
29 2 7.746125 5.000000 34.306500
30 2 7.746125 5.000000 36.766500
31 1 7.746125 5.000000 39.226500
32 1 7.746125 5.000000 41.686500
33 1 7.746125 5.000000 44.146500
34 1 7.746125 5.000000 46.606500
35 1 7.746125 5.000000 49.066500
36 1 9.887588 5.000000 33.076500
37 1 9.887588 5.000000 35.536500
38 1 9.887588 5.000000 37.996500
39 1 9.887588 5.000000 40.456500
40 1 9.887588 5.000000 42.916500
41 1 9.887588 5.000000 45.376500
42 1 9.887588 5.000000 47.836500
43 1 9.173881 5.000000 34.306500
44 1 9.173881 5.000000 36.766500
45 1 9.173881 5.000000 39.226500
46 1 9.173881 5.000000 41.686500
47 1 9.173881 5.000000 44.146500
48 1 9.173881 5.000000 46.606500
49 1 9.173881 5.000000 49.066500
50 1 11.315344 5.000000 33.076500
51 1 11.315344 5.000000 35.536500
52 1 11.315344 5.000000 37.996500
53 1 11.315344 5.000000 40.456500
54 1 11.315344 5.000000 42.916500
55 1 11.315344 5.000000 45.376500
56 1 11.315344 5.000000 47.836500
57 1 12.029050 5.000000 34.306500
58 1 12.029050 5.000000 36.766500
59 1 12.029050 5.000000 39.226500
60 1 12.029050 5.000000 41.686500
61 1 12.029050 5.000000 44.146500
62 1 12.029050 5.000000 46.606500
63 1 12.029050 5.000000 49.066500
64 1 14.170513 5.000000 33.076500
65 1 14.170513 5.000000 35.536500
66 1 14.170513 5.000000 37.996500
67 1 14.170513 5.000000 40.456500
68 1 14.170513 5.000000 42.916500
69 1 14.170513 5.000000 45.376500
70 1 14.170513 5.000000 47.836500
71 1 13.456806 5.000000 34.306500
72 1 13.456806 5.000000 36.766500
73 1 13.456806 5.000000 39.226500
74 1 13.456806 5.000000 41.686500
75 1 13.456806 5.000000 44.146500
76 1 13.456806 5.000000 46.606500
77 1 13.456806 5.000000 49.066500
78 1 15.598269 5.000000 33.076500
79 1 15.598269 5.000000 35.536500
80 1 15.598269 5.000000 37.996500
81 1 15.598269 5.000000 40.456500
82 1 15.598269 5.000000 42.916500
83 1 15.598269 5.000000 45.376500
84 1 15.598269 5.000000 47.836500
85 1 16.311975 5.000000 34.306500
86 1 16.311975 5.000000 36.766500
87 1 16.311975 5.000000 39.226500
88 1 16.311975 5.000000 41.686500
89 1 16.311975 5.000000 44.146500
90 1 16.311975 5.000000 46.606500
91 1 16.311975 5.000000 49.066500
92 1 1.321738 5.000000 33.076500
93 1 1.321738 5.000000 35.536500
94 1 1.321738 5.000000 37.996500
95 1 1.321738 5.000000 40.456500
96 1 1.321738 5.000000 42.916500
97 1 1.321738 5.000000 45.376500
98 1 1.321738 5.000000 47.836500
99 1 0.608031 5.000000 34.306500
100 1 0.608031 5.000000 36.766500
101 1 0.608031 5.000000 39.226500
102 1 0.608031 5.000000 41.686500
103 1 0.608031 5.000000 44.146500
104 1 0.608031 5.000000 46.606500
105 1 0.608031 5.000000 49.066500
106 1 2.749494 5.000000 33.076500
107 1 2.749494 5.000000 35.536500
108 1 2.749494 5.000000 37.996500
109 1 2.749494 5.000000 40.456500
110 1 2.749494 5.000000 42.916500
111 1 2.749494 5.000000 45.376500
112 1 2.749494 5.000000 47.836500
113 2 2.893057 5.000000 50.054000
114 2 5.460928 5.000000 50.054000
115 2 7.178209 5.000000 50.055000
116 2 9.743853 5.000000 50.054000
117 2 11.461134 5.000000 50.055000
118 2 14.026778 5.000000 50.054000
119 2 15.744059 5.000000 50.055000
120 2 1.178003 5.000000 50.054000
121 1 -0.039917 5.000000 8.565500
122 1 -0.039917 5.000000 12.826500
123 1 -0.039917 5.000000 17.087500
124 1 -0.039917 5.000000 21.348000
125 1 -0.039917 5.000000 9.986000
126 1 -0.039917 5.000000 14.246500
127 1 -0.039917 5.000000 18.507500
128 1 -0.039917 5.000000 22.768500
129 1 15.868066 5.000000 10.696000
130 1 15.868066 5.000000 14.957000
131 1 15.868066 5.000000 19.217500
132 1 15.868066 5.000000 23.478500
133 1 15.868066 5.000000 7.855500
134 1 15.868066 5.000000 12.116500
135 1 15.868066 5.000000 16.377000
136 1 15.868066 5.000000 20.638000
137 1 14.644348 5.000000 8.565500
138 1 14.644348 5.000000 12.826500
139 1 14.644348 5.000000 17.087500
140 1 14.644348 5.000000 21.348000
141 1 13.420631 5.000000 10.696000
142 1 13.420631 5.000000 14.957000
143 1 13.420631 5.000000 19.217500
144 1 13.420631 5.000000 23.478500
145 1 14.644348 5.000000 9.986000
146 1 14.644348 5.000000 14.246500
147 1 14.644348 5.000000 18.507500
148 1 14.644348 5.000000 22.768500
149 1 13.420631 5.000000 7.855500
150 1 13.420631 5.000000 12.116500
151 1 13.420631 5.000000 16.377000
152 1 13.420631 5.000000 20.638000
153 1 12.197085 5.000000 8.565500
154 1 12.197085 5.000000 12.826500
155 1 12.197085 5.000000 17.087500
156 1 12.197085 5.000000 21.348000
157 1 10.973368 5.000000 10.696000
158 1 10.973368 5.000000 14.957000
159 1 10.973368 5.000000 19.217500
160 1 10.973368 5.000000 23.478500
161 1 12.197085 5.000000 9.986000
162 1 12.197085 5.000000 14.246500
163 1 12.197085 5.000000 18.507500
164 1 12.197085 5.000000 22.768500
165 1 10.973368 5.000000 7.855500
166 1 10.973368 5.000000 12.116500
167 1 10.973368 5.000000 16.377000
168 1 10.973368 5.000000 20.638000
169 1 9.749650 5.000000 8.565500
170 1 9.749650 5.000000 12.826500
171 1 9.749650 5.000000 17.087500
172 1 9.749650 5.000000 21.348000
173 1 8.525933 5.000000 10.696000
174 1 8.525933 5.000000 14.957000
175 1 8.525933 5.000000 19.217500
176 1 8.525933 5.000000 23.478500
177 1 9.749650 5.000000 9.986000
178 1 9.749650 5.000000 14.246500
179 1 9.749650 5.000000 18.507500
180 1 9.749650 5.000000 22.768500
181 1 8.525933 5.000000 7.855500
182 1 8.525933 5.000000 12.116500
183 1 8.525933 5.000000 16.377000
184 1 8.525933 5.000000 20.638000
185 1 7.302216 5.000000 8.565500
186 1 7.302216 5.000000 12.826500
187 1 7.302216 5.000000 17.087500
188 1 7.302216 5.000000 21.348000
189 1 6.078498 5.000000 10.696000
190 1 6.078498 5.000000 14.957000
191 1 6.078498 5.000000 19.217500
192 1 6.078498 5.000000 23.478500
193 1 7.302216 5.000000 9.986000
194 1 7.302216 5.000000 14.246500
195 1 7.302216 5.000000 18.507500
196 1 7.302216 5.000000 22.768500
197 1 6.078498 5.000000 7.855500
198 1 6.078498 5.000000 12.116500
199 1 6.078498 5.000000 16.377000
200 1 6.078498 5.000000 20.638000
201 1 4.854781 5.000000 8.565500
202 1 4.854781 5.000000 12.826500
203 1 4.854781 5.000000 17.087500
204 1 4.854781 5.000000 21.348000
205 1 3.631235 5.000000 10.696000
206 1 3.631235 5.000000 14.957000
207 1 3.631235 5.000000 19.217500
208 1 3.631235 5.000000 23.478500
209 1 4.854781 5.000000 9.986000
210 1 4.854781 5.000000 14.246500
211 1 4.854781 5.000000 18.507500
212 1 4.854781 5.000000 22.768500
213 1 3.631235 5.000000 7.855500
214 1 3.631235 5.000000 12.116500
215 1 3.631235 5.000000 16.377000
216 1 3.631235 5.000000 20.638000
217 1 2.407518 5.000000 8.565500
218 1 2.407518 5.000000 12.826500
219 1 2.407518 5.000000 17.087500
220 1 2.407518 5.000000 21.348000
221 1 1.183800 5.000000 10.696000
222 1 1.183800 5.000000 14.957000
223 1 1.183800 5.000000 19.217500
224 1 1.183800 5.000000 23.478500
225 1 2.407518 5.000000 9.986000
226 1 2.407518 5.000000 14.246500
227 1 2.407518 5.000000 18.507500
228 1 2.407518 5.000000 22.768500
229 1 1.183800 5.000000 7.855500
230 1 1.183800 5.000000 12.116500
231 1 1.183800 5.000000 16.377000
232 1 1.183800 5.000000 20.638000
233 2 15.865667 5.000000 6.715500
234 2 13.423030 5.000000 6.715500
235 2 10.975766 5.000000 6.715500
236 2 8.528332 5.000000 6.715500
237 2 6.080897 5.000000 6.715500
238 2 3.633634 5.000000 6.715500
239 2 1.181402 5.000000 6.715500
240 2 4.780076 1.477716 27.732037
241 2 9.092376 2.347264 27.393730
242 2 4.374460 7.995591 24.839786
243 2 5.670599 5.949048 24.835461
244 2 6.619468 6.747169 27.732367
245 2 12.317495 7.654116 26.749721
246 2 0.597428 7.550768 23.889922
247 2 7.561599 8.848754 23.500000
248 2 2.292319 5.282223 23.500000
249 2 15.663509 0.650360 27.303375
250 2 5.895675 4.613264 26.606084
251 2 2.842838 5.941425 23.500000
252 2 4.749277 9.760284 25.492469
253 2 9.600957 0.587708 27.560243
254 2 12.423842 3.470694 27.965415
255 2 5.992429 0.578573 24.874190
256 2 7.746498 2.400351 24.321521
257 2 0.028505 9.478660 28.074410
258 2 5.800713 0.320064 29.655625
259 2 17.016015 4.507668 30.845732
260 2 8.248981 5.060407 29.435616
261 2 11.530891 4.791143 29.508973
262 2 4.688149 4.562881 28.601772
263 2 3.442565 7.301934 29.499892
264 2 5.367645 6.973969 29.869244
265 2 5.798075 0.249753 28.418303
266 2 16.403477 1.166831 29.522891
267 2 1.840953 5.932630 32.582508
268 1 11.933734 2.891703 25.178360
269 1 13.488503 0.147396 25.709978
270 1 3.259469 4.077608 24.952106
271 1 3.348487 6.107380 23.500000
272 1 3.272078 4.825656 23.500000
273 1 12.604834 9.728729 23.500000
274 1 12.613381 5.668689 23.500000
275 1 10.984249 4.669886 24.552193
276 1 7.584821 6.106961 24.115387
277 1 11.709689 5.483462 24.074988
278 1 6.418455 9.470326 26.858993
279 1 8.521441 4.453041 28.310887
280 1 1.857275 7.410235 28.508461
281 1 0.429905 7.949902 25.712633
282 1 1.318310 5.627066 26.328277
283 1 2.883920 0.583791 29.590413
284 1 14.851441 0.185764 27.657752
285 1 12.723088 5.443096 27.113553
286 1 6.687863 0.361818 27.942165
287 1 2.595907 0.615774 25.603047
288 1 9.490791 7.445341 24.656851
289 1 10.673659 1.484593 28.001526
290 1 13.451133 9.049651 29.536583
291 1 16.334998 3.030420 33.000000
292 1 8.925945 2.136312 31.271189
293 1 6.155626 7.168628 31.709851
294 1 7.448415 8.820376 30.683525
295 1 13.115972 2.424161 29.634376
296 1 10.178442 4.312725 33.000000
297 1 3.809734 4.801884 31.426270
298 1 11.927147 5.408153 29.550507
299 1 12.836853 5.949730 27.951478
300 1 3.347391 8.962367 30.720818
