300
Atoms. Timestep: 0
458183584             15.199784                     5             37.042353
458183584             15.199784                     5             39.502353
458183584             15.199784                     5             41.962353
458183584             15.199784                     5             44.422353
458183584             15.199784                     5             46.882353
458183584             15.199784                     5             49.342353
458183584             15.199784                     5              1.802353
458183584              0.209547                     5             35.812353
458183584              0.209547                     5             38.272353
458183584              0.209547                     5             40.732353
458183584              0.209547                     5             43.192353
458183584              0.209547                     5             45.652353
458183584              0.209547                     5             48.112353
458183584              0.209547                     5              0.572353
458183584              16.62754                     5             37.042353
458183584              16.62754                     5             39.502353
458183584              16.62754                     5             41.962353
458183584              16.62754                     5             44.422353
458183584              16.62754                     5             46.882353
458183584              16.62754                     5             49.342353
458183584              16.62754                     5              1.802353
458183584              1.637303                     5             35.812353
458183584              1.637303                     5             38.272353
458183584              1.637303                     5             40.732353
458183584              1.637303                     5             43.192353
458183584              1.637303                     5             45.652353
458183584              1.637303                     5             48.112353
458183584              1.637303                     5              0.572353
458183584              2.351009                     5             37.042353
458183584              2.351009                     5             39.502353
458183552              2.351009                     5             41.962353
458183552              2.351009                     5             44.422353
458183552              2.351009                     5             46.882353
458183552              2.351009                     5             49.342353
458183552              2.351009                     5              1.802353
458183552              4.492472                     5             35.812353
458183552              4.492472                     5             38.272353
458183552              4.492472                     5             40.732353
458183552              4.492472                     5             43.192353
458183552              4.492472                     5             45.652353
458183552              4.492472                     5             48.112353
458183552              4.492472                     5              0.572353
458183552              3.778765                     5             37.042353
458183552              3.778765                     5             39.502353
458183552              3.778765                     5             41.962353
458183552              3.778765                     5             44.422353
458183552              3.778765                     5             46.882353
458183552              3.778765                     5             49.342353
458183552              3.778765                     5              1.802353
458183552              5.920228                     5             35.812353
458183552              5.920228                     5             38.272353
458183552              5.920228                     5             40.732353
458183552              5.920228                     5             43.192353
458183552              5.920228                     5             45.652353
458183552              5.920228                     5             48.112353
458183552              5.920228                     5              0.572353
458183552              6.633934                     5             37.042353
458183552              6.633934                     5             39.502353
458183552              6.633934                     5             41.962353
458183552              6.633934                     5             44.422353
458183552              6.633934                     5             46.882353
458183552              6.633934                     5             49.342353
458183552              6.633934                     5              1.802353
458183552              8.775397                     5             35.812353
458183552              8.775397                     5             38.272353
458183552              8.775397                     5             40.732353
458183552              8.775397                     5             43.192353
458183552              8.775397                     5             45.652353
458183552              8.775397                     5             48.112353
458183552              8.775397                     5              0.572353
458183552               8.06169                     5             37.042353
458183552               8.06169                     5             39.502353
458183552               8.06169                     5             41.962353
458183552               8.06169                     5             44.422353
458183552               8.06169                     5             46.882353
458183552               8.06169                     5             49.342353
458183552               8.06169                     5              1.802353
458183552             10.203153                     5             35.812353
458183552             10.203153                     5             38.272353
458183552             10.203153                     5             40.732353
458183552             10.203153                     5             43.192353
458183552             10.203153                     5             45.652353
458183552             10.203153                     5             48.112353
458183552             10.203153                     5              0.572353
458183552             10.916859                     5             37.042353
458183552             10.916859                     5             39.502353
458183552             10.916859                     5             41.962353
458183552             10.916859                     5             44.422353
458183552             10.916859                     5             46.882353
458183552             10.916859                     5             49.342353
458183552             10.916859                     5              1.802353
458183552             13.058322                     5             35.812353
458183552             13.058322                     5             38.272353
458183552             13.058322                     5             40.732353
458183552             13.058322                     5             43.192353
458183552             13.058322                     5             45.652353
458183552             13.058322                     5             48.112353
458183552             13.058322                     5              0.572353
458183552             12.344615                     5             37.042353
458183552             12.344615                     5             39.502353
458183552             12.344615                     5             41.962353
458183552             12.344615                     5             44.422353
458183552             12.344615                     5             46.882353
458183552             12.344615                     5             49.342353
458183552             12.344615                     5              1.802353
458183552             14.486078                     5             35.812353
458183552             14.486078                     5             38.272353
458183552             14.486078                     5             40.732353
458183552             14.486078                     5             43.192353
458183552             14.486078                     5             45.652353
458183552             14.486078                     5             48.112353
458183552             14.486078                     5              0.572353
458183584             14.629641                     5              2.789853
458183584              0.065812                     5              2.789853
458183584              1.783093                     5              2.790853
458183584              4.348737                     5              2.789853
458183584              6.066018                     5              2.790853
458183584              8.631662                     5              2.789853
458183584             10.348943                     5              2.790853
458183584             12.914587                     5              2.789853
458183552             17.091783                     5                8.5655
458183552             17.091783                     5               12.8265
458183552             17.091783                     5               17.0875
458183552             17.091783                     5                21.348
458183552             17.091783                     5                 9.986
458183552             17.091783                     5               14.2465
458183552             17.091783                     5               18.5075
458183552             17.091783                     5               22.7685
458183552             15.868066                     5                10.696
458183552             15.868066                     5                14.957
458183552             15.868066                     5               19.2175
458183552             15.868066                     5               23.4785
458183552             15.868066                     5                7.8555
458183552             15.868066                     5               12.1165
458183552             15.868066                     5                16.377
458183552             15.868066                     5                20.638
458183552             14.644348                     5                8.5655
458183552             14.644348                     5               12.8265
458183552             14.644348                     5               17.0875
458183552             14.644348                     5                21.348
458183552             13.420631                     5                10.696
458183552             13.420631                     5                14.957
458183552             13.420631                     5               19.2175
458183552             13.420631                     5               23.4785
458183552             14.644348                     5                 9.986
458183552             14.644348                     5               14.2465
458183552             14.644348                     5               18.5075
458183552             14.644348                     5               22.7685
458183552             13.420631                     5                7.8555
458183552             13.420631                     5               12.1165
458183552             13.420631                     5                16.377
458183552             13.420631                     5                20.638
458183552             12.197085                     5                8.5655
458183552             12.197085                     5               12.8265
458183552             12.197085                     5               17.0875
458183552             12.197085                     5                21.348
458183552             10.973368                     5                10.696
458183552             10.973368                     5                14.957
458183552             10.973368                     5               19.2175
458183552             10.973368                     5               23.4785
458183552             12.197085                     5                 9.986
458183552             12.197085                     5               14.2465
458183552             12.197085                     5               18.5075
458183552             12.197085                     5               22.7685
458183552             10.973368                     5                7.8555
458183552             10.973368                     5               12.1165
458183552             10.973368                     5                16.377
458183552             10.973368                     5                20.638
458183552               9.74965                     5                8.5655
458183552               9.74965                     5               12.8265
458183552               9.74965                     5               17.0875
458183552               9.74965                     5                21.348
458183552              8.525933                     5                10.696
458183552              8.525933                     5                14.957
458183552              8.525933                     5               19.2175
458183552              8.525933                     5               23.4785
458183552               9.74965                     5                 9.986
458183552               9.74965                     5               14.2465
458183552               9.74965                     5               18.5075
458183552               9.74965                     5               22.7685
458183552              8.525933                     5                7.8555
458183552              8.525933                     5               12.1165
458183552              8.525933                     5                16.377
458183552              8.525933                     5                20.638
458183552              7.302216                     5                8.5655
458183552              7.302216                     5               12.8265
458183552              7.302216                     5               17.0875
458183552              7.302216                     5                21.348
458183552              6.078498                     5                10.696
458183552              6.078498                     5                14.957
458183552              6.078498                     5               19.2175
458183552              6.078498                     5               23.4785
458183552              7.302216                     5                 9.986
458183552              7.302216                     5               14.2465
458183552              7.302216                     5               18.5075
458183552              7.302216                     5               22.7685
458183552              6.078498                     5                7.8555
458183552              6.078498                     5               12.1165
458183552              6.078498                     5                16.377
458183552              6.078498                     5                20.638
458183552              4.854781                     5                8.5655
458183552              4.854781                     5               12.8265
458183552              4.854781                     5               17.0875
458183552              4.854781                     5                21.348
458183552              3.631235                     5                10.696
458183552              3.631235                     5                14.957
458183552              3.631235                     5               19.2175
458183552              3.631235                     5               23.4785
458183552              4.854781                     5                 9.986
458183552              4.854781                     5               14.2465
458183552              4.854781                     5               18.5075
458183552              4.854781                     5               22.7685
458183552              3.631235                     5                7.8555
458183552              3.631235                     5               12.1165
458183552              3.631235                     5                16.377
458183552              3.631235                     5                20.638
458183552              2.407518                     5                8.5655
458183552              2.407518                     5               12.8265
458183552              2.407518                     5               17.0875
458183552              2.407518                     5                21.348
458183552                1.1838                     5                10.696
458183552                1.1838                     5                14.957
458183552                1.1838                     5               19.2175
458183552                1.1838                     5               23.4785
458183552              2.407518                     5                 9.986
458183552              2.407518                     5               14.2465
458183552              2.407518                     5               18.5075
458183552              2.407518                     5               22.7685
458183552                1.1838                     5                7.8555
458183552                1.1838                     5               12.1165
458183552                1.1838                     5                16.377
458183552                1.1838                     5                20.638
458183584             15.865667                     5                6.7155
458183584              13.42303                     5                6.7155
458183584             10.975766                     5                6.7155
458183584              8.528332                     5                6.7155
458183584              6.080897                     5                6.7155
458183584              3.633634                     5                6.7155
458183584              1.181402                     5                6.7155
458183584              1.686806              1.926746             25.345377
458183584              1.883667              2.583679             26.557671
458183584              3.216104              3.379869             24.666833
458183584              2.571455              6.702109             24.373294
458183584             14.879318              0.826578             24.684586
458183584             12.604069              2.557071             26.496632
458183584              7.268712              5.015889              27.89902
458183584              9.098493              5.818856             30.406759
458183584             13.197699               9.40451             28.971075
458183584              4.897074              3.231743             31.403016
458183584              4.528789              3.244349             32.208392
458183584              1.445434              4.151546             32.899093
458183584              5.845312              9.518659             32.283503
458183584             15.053413              1.512971             32.854963
458183584              6.938534              2.803405             32.670807
458183584              8.611126              6.876902             32.769787
458183584             14.348453              8.590407             32.625015
458183584              9.507383               9.78295             30.470343
458183584              3.768592              1.289576             33.368094
458183584              5.793697              1.875113             33.802475
458183584              2.848548              4.046007             34.685394
458183584               1.18339              4.680635             33.751656
458183584              0.013448              9.605102             35.391537
458183584             15.284798              0.221343             34.967503
458183584             11.150144              5.522043             33.832904
458183584              6.348772              6.579064             33.040946
458183584              5.885386               6.77448             35.192405
458183584             16.053523              6.931454             33.101539
458183552             10.357968              0.334486             24.881898
458183552              5.590032              2.737115             26.962404
458183552              1.260372              3.989298             23.611244
458183552             10.385612              4.052659             26.704331
458183552               8.48492              9.754537             26.084517
458183552              14.18776              1.613364             27.865472
458183552             14.255099              4.749522             25.888363
458183552             10.552422              7.367877             24.758455
458183552              17.03425               7.58045             24.508763
458183552              15.82274              8.927323             27.204327
458183552             13.559802              8.933861             25.156131
458183552              1.772399              1.659922             29.943612
458183552              4.930265              1.847816             31.104593
458183552              3.011534              2.068651             30.511732
458183552              4.594045               7.31654             30.445737
458183552              5.812399              8.599349             29.093958
458183552             15.419222              2.214946             30.723709
458183552             14.716101              2.464454             28.592781
458183552             16.294845              4.478067             28.127698
458183552             10.297883              7.935139             30.522194
458183552             11.705917              8.241313             31.299471
458183552              12.20356              9.373403             28.659111
458183552             11.971411              1.234832             31.959214
458183552             11.209568              4.141435             31.739606
458183552              9.759243              7.146963             34.036276
458183552              3.862028              8.034704             32.700428
458183552              9.397815              9.345207             34.642406
458183552             14.276052              1.894964             35.236618
458183552             16.843309                2.1873             31.921792
458183552             14.471468               2.70225             34.332347
458183552             15.770799              4.478568              32.59332
458183552             16.612676              6.165802             35.277588
458183552             15.656654              9.204053             33.789167
300
Atoms. Timestep: 9
458183584      15.1999199269391                     5      37.0430562632121
458183584      15.1999199269391                     5      39.5030562632121
458183584      15.1999199269391                     5      41.9630562632121
458183584      15.1999199269391                     5      44.4230562632121
458183584      15.1999199269391                     5      46.8830562632121
458183584      15.1999199269391                     5      49.3430562632121
458183584      15.1999199269391                     5      1.80305626321206
458183584     0.209682926939141                     5      35.8130562632121
458183584     0.209682926939141                     5      38.2730562632121
458183584     0.209682926939141                     5      40.7330562632121
458183584     0.209682926939141                     5      43.1930562632121
458183584     0.209682926939141                     5      45.6530562632121
458183584     0.209682926939141                     5      48.1130562632121
458183584     0.209682926939141                     5     0.573056263212067
458183584      16.6276759269391                     5      37.0430562632121
458183584      16.6276759269391                     5      39.5030562632121
458183584      16.6276759269391                     5      41.9630562632121
458183584      16.6276759269391                     5      44.4230562632121
458183584      16.6276759269391                     5      46.8830562632121
458183584      16.6276759269391                     5      49.3430562632121
458183584      16.6276759269391                     5      1.80305626321206
458183584      1.63743892693914                     5      35.8130562632121
458183584      1.63743892693914                     5      38.2730562632121
458183584      1.63743892693914                     5      40.7330562632121
458183584      1.63743892693914                     5      43.1930562632121
458183584      1.63743892693914                     5      45.6530562632121
458183584      1.63743892693914                     5      48.1130562632121
458183584      1.63743892693914                     5     0.573056263212067
458183584      2.35114492693914                     5      37.0430562632121
458183584      2.35114492693914                     5      39.5030562632121
458183552      2.35114492693914                     5      41.9630562632121
458183552      2.35114492693914                     5      44.4230562632121
458183552      2.35114492693914                     5      46.8830562632121
458183552      2.35114492693914                     5      49.3430562632121
458183552      2.35114492693914                     5      1.80305626321206
458183552      4.49260792693914                     5      35.8130562632121
458183552      4.49260792693914                     5      38.2730562632121
458183552      4.49260792693914                     5      40.7330562632121
458183552      4.49260792693914                     5      43.1930562632121
458183552      4.49260792693914                     5      45.6530562632121
458183552      4.49260792693914                     5      48.1130562632121
458183552      4.49260792693914                     5     0.573056263212067
458183552      3.77890092693914                     5      37.0430562632121
458183552      3.77890092693914                     5      39.5030562632121
458183552      3.77890092693914                     5      41.9630562632121
458183552      3.77890092693914                     5      44.4230562632121
458183552      3.77890092693914                     5      46.8830562632121
458183552      3.77890092693914                     5      49.3430562632121
458183552      3.77890092693914                     5      1.80305626321206
458183552      5.92036392693914                     5      35.8130562632121
458183552      5.92036392693914                     5      38.2730562632121
458183552      5.92036392693914                     5      40.7330562632121
458183552      5.92036392693914                     5      43.1930562632121
458183552      5.92036392693914                     5      45.6530562632121
458183552      5.92036392693914                     5      48.1130562632121
458183552      5.92036392693914                     5     0.573056263212067
458183552      6.63406992693914                     5      37.0430562632121
458183552      6.63406992693914                     5      39.5030562632121
458183552      6.63406992693914                     5      41.9630562632121
458183552      6.63406992693914                     5      44.4230562632121
458183552      6.63406992693914                     5      46.8830562632121
458183552      6.63406992693914                     5      49.3430562632121
458183552      6.63406992693914                     5      1.80305626321206
458183552      8.77553292693914                     5      35.8130562632121
458183552      8.77553292693914                     5      38.2730562632121
458183552      8.77553292693914                     5      40.7330562632121
458183552      8.77553292693914                     5      43.1930562632121
458183552      8.77553292693914                     5      45.6530562632121
458183552      8.77553292693914                     5      48.1130562632121
458183552      8.77553292693914                     5     0.573056263212067
458183552      8.06182592693914                     5      37.0430562632121
458183552      8.06182592693914                     5      39.5030562632121
458183552      8.06182592693914                     5      41.9630562632121
458183552      8.06182592693914                     5      44.4230562632121
458183552      8.06182592693914                     5      46.8830562632121
458183552      8.06182592693914                     5      49.3430562632121
458183552      8.06182592693914                     5      1.80305626321206
458183552      10.2032889269391                     5      35.8130562632121
458183552      10.2032889269391                     5      38.2730562632121
458183552      10.2032889269391                     5      40.7330562632121
458183552      10.2032889269391                     5      43.1930562632121
458183552      10.2032889269391                     5      45.6530562632121
458183552      10.2032889269391                     5      48.1130562632121
458183552      10.2032889269391                     5     0.573056263212067
458183552      10.9169949269391                     5      37.0430562632121
458183552      10.9169949269391                     5      39.5030562632121
458183552      10.9169949269391                     5      41.9630562632121
458183552      10.9169949269391                     5      44.4230562632121
458183552      10.9169949269391                     5      46.8830562632121
458183552      10.9169949269391                     5      49.3430562632121
458183552      10.9169949269391                     5      1.80305626321206
458183552      13.0584579269391                     5      35.8130562632121
458183552      13.0584579269391                     5      38.2730562632121
458183552      13.0584579269391                     5      40.7330562632121