search structure

300 atoms
2  atom types

0   17.131700 xlo xhi
0   10.000000 ylo yhi
0   50.000000 zlo zhi

Atoms

1 2 15.199784 5.000000 37.042353
2 2 15.199784 5.000000 39.502353
3 2 15.199784 5.000000 41.962353
4 2 15.199784 5.000000 44.422353
5 2 15.199784 5.000000 46.882353
6 2 15.199784 5.000000 49.342353
7 2 15.199784 5.000000 51.802353
8 2 0.209547 5.000000 35.812353
9 2 0.209547 5.000000 38.272353
10 2 0.209547 5.000000 40.732353
11 2 0.209547 5.000000 43.192353
12 2 0.209547 5.000000 45.652353
13 2 0.209547 5.000000 48.112353
14 2 0.209547 5.000000 50.572353
15 2 16.627540 5.000000 37.042353
16 2 16.627540 5.000000 39.502353
17 2 16.627540 5.000000 41.962353
18 2 16.627540 5.000000 44.422353
19 2 16.627540 5.000000 46.882353
20 2 16.627540 5.000000 49.342353
21 2 16.627540 5.000000 51.802353
22 2 1.637303 5.000000 35.812353
23 2 1.637303 5.000000 38.272353
24 2 1.637303 5.000000 40.732353
25 2 1.637303 5.000000 43.192353
26 2 1.637303 5.000000 45.652353
27 2 1.637303 5.000000 48.112353
28 2 1.637303 5.000000 50.572353
29 2 2.351009 5.000000 37.042353
30 2 2.351009 5.000000 39.502353
31 1 2.351009 5.000000 41.962353
32 1 2.351009 5.000000 44.422353
33 1 2.351009 5.000000 46.882353
34 1 2.351009 5.000000 49.342353
35 1 2.351009 5.000000 51.802353
36 1 4.492472 5.000000 35.812353
37 1 4.492472 5.000000 38.272353
38 1 4.492472 5.000000 40.732353
39 1 4.492472 5.000000 43.192353
40 1 4.492472 5.000000 45.652353
41 1 4.492472 5.000000 48.112353
42 1 4.492472 5.000000 50.572353
43 1 3.778765 5.000000 37.042353
44 1 3.778765 5.000000 39.502353
45 1 3.778765 5.000000 41.962353
46 1 3.778765 5.000000 44.422353
47 1 3.778765 5.000000 46.882353
48 1 3.778765 5.000000 49.342353
49 1 3.778765 5.000000 51.802353
50 1 5.920228 5.000000 35.812353
51 1 5.920228 5.000000 38.272353
52 1 5.920228 5.000000 40.732353
53 1 5.920228 5.000000 43.192353
54 1 5.920228 5.000000 45.652353
55 1 5.920228 5.000000 48.112353
56 1 5.920228 5.000000 50.572353
57 1 6.633934 5.000000 37.042353
58 1 6.633934 5.000000 39.502353
59 1 6.633934 5.000000 41.962353
60 1 6.633934 5.000000 44.422353
61 1 6.633934 5.000000 46.882353
62 1 6.633934 5.000000 49.342353
63 1 6.633934 5.000000 51.802353
64 1 8.775397 5.000000 35.812353
65 1 8.775397 5.000000 38.272353
66 1 8.775397 5.000000 40.732353
67 1 8.775397 5.000000 43.192353
68 1 8.775397 5.000000 45.652353
69 1 8.775397 5.000000 48.112353
70 1 8.775397 5.000000 50.572353
71 1 8.061690 5.000000 37.042353
72 1 8.061690 5.000000 39.502353
73 1 8.061690 5.000000 41.962353
74 1 8.061690 5.000000 44.422353
75 1 8.061690 5.000000 46.882353
76 1 8.061690 5.000000 49.342353
77 1 8.061690 5.000000 51.802353
78 1 10.203153 5.000000 35.812353
79 1 10.203153 5.000000 38.272353
80 1 10.203153 5.000000 40.732353
81 1 10.203153 5.000000 43.192353
82 1 10.203153 5.000000 45.652353
83 1 10.203153 5.000000 48.112353
84 1 10.203153 5.000000 50.572353
85 1 10.916859 5.000000 37.042353
86 1 10.916859 5.000000 39.502353
87 1 10.916859 5.000000 41.962353
88 1 10.916859 5.000000 44.422353
89 1 10.916859 5.000000 46.882353
90 1 10.916859 5.000000 49.342353
91 1 10.916859 5.000000 51.802353
92 1 13.058322 5.000000 35.812353
93 1 13.058322 5.000000 38.272353
94 1 13.058322 5.000000 40.732353
95 1 13.058322 5.000000 43.192353
96 1 13.058322 5.000000 45.652353
97 1 13.058322 5.000000 48.112353
98 1 13.058322 5.000000 50.572353
99 1 12.344615 5.000000 37.042353
100 1 12.344615 5.000000 39.502353
101 1 12.344615 5.000000 41.962353
102 1 12.344615 5.000000 44.422353
103 1 12.344615 5.000000 46.882353
104 1 12.344615 5.000000 49.342353
105 1 12.344615 5.000000 51.802353
106 1 14.486078 5.000000 35.812353
107 1 14.486078 5.000000 38.272353
108 1 14.486078 5.000000 40.732353
109 1 14.486078 5.000000 43.192353
110 1 14.486078 5.000000 45.652353
111 1 14.486078 5.000000 48.112353
112 1 14.486078 5.000000 50.572353
113 2 14.629641 5.000000 52.789853
114 2 0.065812 5.000000 52.789853
115 2 1.783093 5.000000 52.790853
116 2 4.348737 5.000000 52.789853
117 2 6.066018 5.000000 52.790853
118 2 8.631662 5.000000 52.789853
119 2 10.348943 5.000000 52.790853
120 2 12.914587 5.000000 52.789853
121 1 -0.039917 5.000000 8.565500
122 1 -0.039917 5.000000 12.826500
123 1 -0.039917 5.000000 17.087500
124 1 -0.039917 5.000000 21.348000
125 1 -0.039917 5.000000 9.986000
126 1 -0.039917 5.000000 14.246500
127 1 -0.039917 5.000000 18.507500
128 1 -0.039917 5.000000 22.768500
129 1 15.868066 5.000000 10.696000
130 1 15.868066 5.000000 14.957000
131 1 15.868066 5.000000 19.217500
132 1 15.868066 5.000000 23.478500
133 1 15.868066 5.000000 7.855500
134 1 15.868066 5.000000 12.116500
135 1 15.868066 5.000000 16.377000
136 1 15.868066 5.000000 20.638000
137 1 14.644348 5.000000 8.565500
138 1 14.644348 5.000000 12.826500
139 1 14.644348 5.000000 17.087500
140 1 14.644348 5.000000 21.348000
141 1 13.420631 5.000000 10.696000
142 1 13.420631 5.000000 14.957000
143 1 13.420631 5.000000 19.217500
144 1 13.420631 5.000000 23.478500
145 1 14.644348 5.000000 9.986000
146 1 14.644348 5.000000 14.246500
147 1 14.644348 5.000000 18.507500
148 1 14.644348 5.000000 22.768500
149 1 13.420631 5.000000 7.855500
150 1 13.420631 5.000000 12.116500
151 1 13.420631 5.000000 16.377000
152 1 13.420631 5.000000 20.638000
153 1 12.197085 5.000000 8.565500
154 1 12.197085 5.000000 12.826500
155 1 12.197085 5.000000 17.087500
156 1 12.197085 5.000000 21.348000
157 1 10.973368 5.000000 10.696000
158 1 10.973368 5.000000 14.957000
159 1 10.973368 5.000000 19.217500
160 1 10.973368 5.000000 23.478500
161 1 12.197085 5.000000 9.986000
162 1 12.197085 5.000000 14.246500
163 1 12.197085 5.000000 18.507500
164 1 12.197085 5.000000 22.768500
165 1 10.973368 5.000000 7.855500
166 1 10.973368 5.000000 12.116500
167 1 10.973368 5.000000 16.377000
168 1 10.973368 5.000000 20.638000
169 1 9.749650 5.000000 8.565500
170 1 9.749650 5.000000 12.826500
171 1 9.749650 5.000000 17.087500
172 1 9.749650 5.000000 21.348000
173 1 8.525933 5.000000 10.696000
174 1 8.525933 5.000000 14.957000
175 1 8.525933 5.000000 19.217500
176 1 8.525933 5.000000 23.478500
177 1 9.749650 5.000000 9.986000
178 1 9.749650 5.000000 14.246500
179 1 9.749650 5.000000 18.507500
180 1 9.749650 5.000000 22.768500
181 1 8.525933 5.000000 7.855500
182 1 8.525933 5.000000 12.116500
183 1 8.525933 5.000000 16.377000
184 1 8.525933 5.000000 20.638000
185 1 7.302216 5.000000 8.565500
186 1 7.302216 5.000000 12.826500
187 1 7.302216 5.000000 17.087500
188 1 7.302216 5.000000 21.348000
189 1 6.078498 5.000000 10.696000
190 1 6.078498 5.000000 14.957000
191 1 6.078498 5.000000 19.217500
192 1 6.078498 5.000000 23.478500
193 1 7.302216 5.000000 9.986000
194 1 7.302216 5.000000 14.246500
195 1 7.302216 5.000000 18.507500
196 1 7.302216 5.000000 22.768500
197 1 6.078498 5.000000 7.855500
198 1 6.078498 5.000000 12.116500
199 1 6.078498 5.000000 16.377000
200 1 6.078498 5.000000 20.638000
201 1 4.854781 5.000000 8.565500
202 1 4.854781 5.000000 12.826500
203 1 4.854781 5.000000 17.087500
204 1 4.854781 5.000000 21.348000
205 1 3.631235 5.000000 10.696000
206 1 3.631235 5.000000 14.957000
207 1 3.631235 5.000000 19.217500
208 1 3.631235 5.000000 23.478500
209 1 4.854781 5.000000 9.986000
210 1 4.854781 5.000000 14.246500
211 1 4.854781 5.000000 18.507500
212 1 4.854781 5.000000 22.768500
213 1 3.631235 5.000000 7.855500
214 1 3.631235 5.000000 12.116500
215 1 3.631235 5.000000 16.377000
216 1 3.631235 5.000000 20.638000
217 1 2.407518 5.000000 8.565500
218 1 2.407518 5.000000 12.826500
219 1 2.407518 5.000000 17.087500
220 1 2.407518 5.000000 21.348000
221 1 1.183800 5.000000 10.696000
222 1 1.183800 5.000000 14.957000
223 1 1.183800 5.000000 19.217500
224 1 1.183800 5.000000 23.478500
225 1 2.407518 5.000000 9.986000
226 1 2.407518 5.000000 14.246500
227 1 2.407518 5.000000 18.507500
228 1 2.407518 5.000000 22.768500
229 1 1.183800 5.000000 7.855500
230 1 1.183800 5.000000 12.116500
231 1 1.183800 5.000000 16.377000
232 1 1.183800 5.000000 20.638000
233 2 15.865667 5.000000 6.715500
234 2 13.423030 5.000000 6.715500
235 2 10.975766 5.000000 6.715500
236 2 8.528332 5.000000 6.715500
237 2 6.080897 5.000000 6.715500
238 2 3.633634 5.000000 6.715500
239 2 1.181402 5.000000 6.715500
240 2 1.686806 1.926746 25.345377
241 2 1.883667 2.583679 26.557671
242 2 3.216104 3.379869 24.666833
243 2 2.571455 6.702109 24.373294
244 2 14.879318 0.826578 24.684586
245 2 12.604069 2.557071 26.496632
246 2 7.268712 5.015889 27.899020
247 2 9.098493 5.818856 30.406759
248 2 13.197699 9.404510 28.971075
249 2 4.897074 3.231743 31.403016
250 2 4.528789 3.244349 32.208392
251 2 1.445434 4.151546 32.899093
252 2 5.845312 9.518659 32.283503
253 2 15.053413 1.512971 32.854963
254 2 6.938534 2.803405 32.670807
255 2 8.611126 6.876902 32.769787
256 2 14.348453 8.590407 32.625015
257 2 9.507383 9.782950 30.470343
258 2 3.768592 1.289576 33.368094
259 2 5.793697 1.875113 33.802475
260 2 2.848548 4.046007 34.685394
261 2 1.183390 4.680635 33.751656
262 2 0.013448 9.605102 35.391537
263 2 15.284798 0.221343 34.967503
264 2 11.150144 5.522043 33.832904
265 2 6.348772 6.579064 33.040946
266 2 5.885386 6.774480 35.192405
267 2 16.053523 6.931454 33.101539
268 1 10.357968 0.334486 24.881898
269 1 5.590032 2.737115 26.962404
270 1 1.260372 3.989298 23.611244
271 1 10.385612 4.052659 26.704331
272 1 8.484920 9.754537 26.084517
273 1 14.187760 1.613364 27.865472
274 1 14.255099 4.749522 25.888363
275 1 10.552422 7.367877 24.758455
276 1 17.034250 7.580450 24.508763
277 1 15.822740 8.927323 27.204327
278 1 13.559802 8.933861 25.156131
279 1 1.772399 1.659922 29.943612
280 1 4.930265 1.847816 31.104593
281 1 3.011534 2.068651 30.511732
282 1 4.594045 7.316540 30.445737
283 1 5.812399 8.599349 29.093958
284 1 15.419222 2.214946 30.723709
285 1 14.716101 2.464454 28.592781
286 1 16.294845 4.478067 28.127698
287 1 10.297883 7.935139 30.522194
288 1 11.705917 8.241313 31.299471
289 1 12.203560 9.373403 28.659111
290 1 11.971411 1.234832 31.959214
291 1 11.209568 4.141435 31.739606
292 1 9.759243 7.146963 34.036276
293 1 3.862028 8.034704 32.700428
294 1 9.397815 9.345207 34.642406
295 1 14.276052 1.894964 35.236618
296 1 16.843309 2.187300 31.921792
297 1 14.471468 2.702250 34.332347
298 1 15.770799 4.478568 32.593320
299 1 16.612676 6.165802 35.277588
300 1 15.656654 9.204053 33.789167
