300
Atoms. Timestep: 0
489391008             17.123709                     5              34.44881
489391008             17.123709                     5              36.90881
489391008             17.123709                     5              39.36881
489391008             17.123709                     5              41.82881
489391008             17.123709                     5              44.28881
489391008             17.123709                     5              46.74881
489391008             17.123709                     5              49.20881
489391008              2.133472                     5              33.21881
489391008              2.133472                     5              35.67881
489391008              2.133472                     5              38.13881
489391008              2.133472                     5              40.59881
489391008              2.133472                     5              43.05881
489391008              2.133472                     5              45.51881
489391008              2.133472                     5              47.97881
489391008              1.419765                     5              34.44881
489391008              1.419765                     5              36.90881
489391008              1.419765                     5              39.36881
489391008              1.419765                     5              41.82881
489391008              1.419765                     5              44.28881
489391008              1.419765                     5              46.74881
489391008              1.419765                     5              49.20881
489391008              3.561228                     5              33.21881
489391008              3.561228                     5              35.67881
489391008              3.561228                     5              38.13881
489391008              3.561228                     5              40.59881
489391008              3.561228                     5              43.05881
489391008              3.561228                     5              45.51881
489391008              3.561228                     5              47.97881
489391008              4.274934                     5              34.44881
489391008              4.274934                     5              36.90881
489390976              4.274934                     5              39.36881
489390976              4.274934                     5              41.82881
489390976              4.274934                     5              44.28881
489390976              4.274934                     5              46.74881
489390976              4.274934                     5              49.20881
489390976              6.416397                     5              33.21881
489390976              6.416397                     5              35.67881
489390976              6.416397                     5              38.13881
489390976              6.416397                     5              40.59881
489390976              6.416397                     5              43.05881
489390976              6.416397                     5              45.51881
489390976              6.416397                     5              47.97881
489390976               5.70269                     5              34.44881
489390976               5.70269                     5              36.90881
489390976               5.70269                     5              39.36881
489390976               5.70269                     5              41.82881
489390976               5.70269                     5              44.28881
489390976               5.70269                     5              46.74881
489390976               5.70269                     5              49.20881
489390976              7.844153                     5              33.21881
489390976              7.844153                     5              35.67881
489390976              7.844153                     5              38.13881
489390976              7.844153                     5              40.59881
489390976              7.844153                     5              43.05881
489390976              7.844153                     5              45.51881
489390976              7.844153                     5              47.97881
489390976              8.557859                     5              34.44881
489390976              8.557859                     5              36.90881
489390976              8.557859                     5              39.36881
489390976              8.557859                     5              41.82881
489390976              8.557859                     5              44.28881
489390976              8.557859                     5              46.74881
489390976              8.557859                     5              49.20881
489390976             10.699322                     5              33.21881
489390976             10.699322                     5              35.67881
489390976             10.699322                     5              38.13881
489390976             10.699322                     5              40.59881
489390976             10.699322                     5              43.05881
489390976             10.699322                     5              45.51881
489390976             10.699322                     5              47.97881
489390976              9.985615                     5              34.44881
489390976              9.985615                     5              36.90881
489390976              9.985615                     5              39.36881
489390976              9.985615                     5              41.82881
489390976              9.985615                     5              44.28881
489390976              9.985615                     5              46.74881
489390976              9.985615                     5              49.20881
489390976             12.127078                     5              33.21881
489390976             12.127078                     5              35.67881
489390976             12.127078                     5              38.13881
489390976             12.127078                     5              40.59881
489390976             12.127078                     5              43.05881
489390976             12.127078                     5              45.51881
489390976             12.127078                     5              47.97881
489390976             12.840784                     5              34.44881
489390976             12.840784                     5              36.90881
489390976             12.840784                     5              39.36881
489390976             12.840784                     5              41.82881
489390976             12.840784                     5              44.28881
489390976             12.840784                     5              46.74881
489390976             12.840784                     5              49.20881
489390976             14.982247                     5              33.21881
489390976             14.982247                     5              35.67881
489390976             14.982247                     5              38.13881
489390976             14.982247                     5              40.59881
489390976             14.982247                     5              43.05881
489390976             14.982247                     5              45.51881
489390976             14.982247                     5              47.97881
489390976              14.26854                     5              34.44881
489390976              14.26854                     5              36.90881
489390976              14.26854                     5              39.36881
489390976              14.26854                     5              41.82881
489390976              14.26854                     5              44.28881
489390976              14.26854                     5              46.74881
489390976              14.26854                     5              49.20881
489390976             16.410003                     5              33.21881
489390976             16.410003                     5              35.67881
489390976             16.410003                     5              38.13881
489390976             16.410003                     5              40.59881
489390976             16.410003                     5              43.05881
489390976             16.410003                     5              45.51881
489390976             16.410003                     5              47.97881
489391008             16.553566                     5     0.196309999999997
489391008              1.989737                     5     0.196309999999997
489391008              3.707019                     5     0.197310000000002
489391008              6.272662                     5     0.196309999999997
489391008              7.989944                     5     0.197310000000002
489391008             10.555587                     5     0.196309999999997
489391008             12.272869                     5     0.197310000000002
489391008             14.838512                     5     0.196309999999997
489390976             17.091783                     5                8.5655
489390976             17.091783                     5               12.8265
489390976             17.091783                     5               17.0875
489390976             17.091783                     5                21.348
489390976             17.091783                     5                 9.986
489390976             17.091783                     5               14.2465
489390976             17.091783                     5               18.5075
489390976             17.091783                     5               22.7685
489390976             15.868066                     5                10.696
489390976             15.868066                     5                14.957
489390976             15.868066                     5               19.2175
489390976             15.868066                     5               23.4785
489390976             15.868066                     5                7.8555
489390976             15.868066                     5               12.1165
489390976             15.868066                     5                16.377
489390976             15.868066                     5                20.638
489390976             14.644348                     5                8.5655
489390976             14.644348                     5               12.8265
489390976             14.644348                     5               17.0875
489390976             14.644348                     5                21.348
489390976             13.420631                     5                10.696
489390976             13.420631                     5                14.957
489390976             13.420631                     5               19.2175
489390976             13.420631                     5               23.4785
489390976             14.644348                     5                 9.986
489390976             14.644348                     5               14.2465
489390976             14.644348                     5               18.5075
489390976             14.644348                     5               22.7685
489390976             13.420631                     5                7.8555
489390976             13.420631                     5               12.1165
489390976             13.420631                     5                16.377
489390976             13.420631                     5                20.638
489390976             12.197085                     5                8.5655
489390976             12.197085                     5               12.8265
489390976             12.197085                     5               17.0875
489390976             12.197085                     5                21.348
489390976             10.973368                     5                10.696
489390976             10.973368                     5                14.957
489390976             10.973368                     5               19.2175
489390976             10.973368                     5               23.4785
489390976             12.197085                     5                 9.986
489390976             12.197085                     5               14.2465
489390976             12.197085                     5               18.5075
489390976             12.197085                     5               22.7685
489390976             10.973368                     5                7.8555
489390976             10.973368                     5               12.1165
489390976             10.973368                     5                16.377
489390976             10.973368                     5                20.638
489390976               9.74965                     5                8.5655
489390976               9.74965                     5               12.8265
489390976               9.74965                     5               17.0875
489390976               9.74965                     5                21.348
489390976              8.525933                     5                10.696
489390976              8.525933                     5                14.957
489390976              8.525933                     5               19.2175
489390976              8.525933                     5               23.4785
489390976               9.74965                     5                 9.986
489390976               9.74965                     5               14.2465
489390976               9.74965                     5               18.5075
489390976               9.74965                     5               22.7685
489390976              8.525933                     5                7.8555
489390976              8.525933                     5               12.1165
489390976              8.525933                     5                16.377
489390976              8.525933                     5                20.638
489390976              7.302216                     5                8.5655
489390976              7.302216                     5               12.8265
489390976              7.302216                     5               17.0875
489390976              7.302216                     5                21.348
489390976              6.078498                     5                10.696
489390976              6.078498                     5                14.957
489390976              6.078498                     5               19.2175
489390976              6.078498                     5               23.4785
489390976              7.302216                     5                 9.986
489390976              7.302216                     5               14.2465
489390976              7.302216                     5               18.5075
489390976              7.302216                     5               22.7685
489390976              6.078498                     5                7.8555
489390976              6.078498                     5               12.1165
489390976              6.078498                     5                16.377
489390976              6.078498                     5                20.638
489390976              4.854781                     5                8.5655
489390976              4.854781                     5               12.8265
489390976              4.854781                     5               17.0875
489390976              4.854781                     5                21.348
489390976              3.631235                     5                10.696
489390976              3.631235                     5                14.957
489390976              3.631235                     5               19.2175
489390976              3.631235                     5               23.4785
489390976              4.854781                     5                 9.986
489390976              4.854781                     5               14.2465
489390976              4.854781                     5               18.5075
489390976              4.854781                     5               22.7685
489390976              3.631235                     5                7.8555
489390976              3.631235                     5               12.1165
489390976              3.631235                     5                16.377
489390976              3.631235                     5                20.638
489390976              2.407518                     5                8.5655
489390976              2.407518                     5               12.8265
489390976              2.407518                     5               17.0875
489390976              2.407518                     5                21.348
489390976                1.1838                     5                10.696
489390976                1.1838                     5                14.957
489390976                1.1838                     5               19.2175
489390976                1.1838                     5               23.4785
489390976              2.407518                     5                 9.986
489390976              2.407518                     5               14.2465
489390976              2.407518                     5               18.5075
489390976              2.407518                     5               22.7685
489390976                1.1838                     5                7.8555
489390976                1.1838                     5               12.1165
489390976                1.1838                     5                16.377
489390976                1.1838                     5                20.638
489391008             15.865667                     5                6.7155
489391008              13.42303                     5                6.7155
489391008             10.975766                     5                6.7155
489391008              8.528332                     5                6.7155
489391008              6.080897                     5                6.7155
489391008              3.633634                     5                6.7155
489391008              1.181402                     5                6.7155
489391008              4.253996               0.87115             25.057443
489391008             15.330273              2.071482                  23.5
489391008              7.234898              8.759762             24.859856
489391008              7.579372              8.620189                  23.5
489391008             12.248734              3.727661             26.973051
489391008             10.211144              4.791021                  23.5
489391008             15.811651              5.019784             24.085531
489391008             12.671143              6.232398                  23.5
489391008              15.39225              8.748961             26.064703
489391008              1.116902              9.305573             28.514003
489391008               4.79064               3.95425              26.85991
489391008             16.576254              2.540354             27.678016
489391008              1.640311              9.251766             26.925765
489391008              9.460792              1.110952             27.417705
489391008             13.073876              2.436866             24.978352
489391008             14.590826              5.065478             29.920134
489391008              5.709853              5.848796             28.449786
489391008             14.882832              7.569173             27.604733
489391008              7.857491              0.117576              32.05312
489391008              0.469125              4.053655              33.14231
489391008              0.879628              3.204797             29.432358
489391008              7.107183              4.184453              33.14231
489391008              8.336997               5.31413             30.184937
489391008              9.877166              0.626931             27.869792
489391008             14.429358              2.749946             28.629529
489391008             14.782109              3.472486              30.25314
489391008             16.341443              5.578267             31.649285
489391008             10.577471              5.723896             30.639108
489390976              8.759487              1.223013             25.729895
489390976              7.308106              3.448315             25.743084
489390976               7.35945              5.945837             25.190095
489390976              1.035332                7.7097             25.887262
489390976              4.735544              8.845003                  23.5
489390976             12.412904              1.134263             25.288637
489390976             11.404131              0.806557             24.792958
489390976              4.856301              4.375444             24.567955
489390976             13.116863              6.494531             25.344521
489390976             15.035962              7.806187             24.347256
489390976             10.380057               9.02362             25.674139
489390976             15.108536              0.953688                29.956
489390976             16.450654              3.538815             30.383936
489390976             15.805679              2.269707             24.196736
489390976             12.259392              5.208862             28.341961
489390976              0.230476              8.414192             25.159742
489390976              5.279815                1.7283             26.145521
489390976             10.499369              5.443096             27.792954
489390976              9.797164              5.248424             26.546829
489390976             12.593174              6.310939              28.78206
489390976              6.335252              7.561409             25.390853
489390976              2.118282               9.43894              27.06165
489390976              4.264701              7.607359             32.208556
489390976              6.694189              9.317049             32.326654
489390976              8.900943              1.781768              33.14231
489390976               1.27009              8.054994             29.403726
489390976              6.517022              9.616538             29.403504
489390976               6.65615              3.079514             32.815613
489390976             14.051459              6.077157              31.40567
489390976             12.349362              7.017176             28.276929
489390976             17.031715              6.653477             30.795026
489390976             14.297196              9.974951             28.833318
489390976               7.97141              9.655217             31.947183
300
Atoms. Timestep: 9
489391008      17.1258304560035                     5      34.4539692189302
489391008      17.1258304560035                     5      36.9139692189302
489391008      17.1258304560035                     5      39.3739692189302
489391008      17.1258304560035                     5      41.8339692189302
489391008      17.1258304560035                     5      44.2939692189302
489391008      17.1258304560035                     5      46.7539692189302
489391008      17.1258304560035                     5      49.2139692189302
489391008      2.13559345600348                     5      33.2239692189302
489391008      2.13559345600348                     5      35.6839692189302
489391008      2.13559345600348                     5      38.1439692189302
489391008      2.13559345600348                     5      40.6039692189302
489391008      2.13559345600348                     5      43.0639692189302
489391008      2.13559345600348                     5      45.5239692189302
489391008      2.13559345600348                     5      47.9839692189302
489391008      1.42188645600348                     5      34.4539692189302
489391008      1.42188645600348                     5      36.9139692189302
489391008      1.42188645600348                     5      39.3739692189302
489391008      1.42188645600348                     5      41.8339692189302
489391008      1.42188645600348                     5      44.2939692189302
489391008      1.42188645600348                     5      46.7539692189302
489391008      1.42188645600348                     5      49.2139692189302
489391008      3.56334945600348                     5      33.2239692189302
489391008      3.56334945600348                     5      35.6839692189302
489391008      3.56334945600348                     5      38.1439692189302
489391008      3.56334945600348                     5      40.6039692189302
489391008      3.56334945600348                     5      43.0639692189302
489391008      3.56334945600348                     5      45.5239692189302
489391008      3.56334945600348                     5      47.9839692189302
489391008      4.27705545600348                     5      34.4539692189302
489391008      4.27705545600348                     5      36.9139692189302
489390976      4.27705545600348                     5      39.3739692189302
489390976      4.27705545600348                     5      41.8339692189302
489390976      4.27705545600348                     5      44.2939692189302
489390976      4.27705545600348                     5      46.7539692189302
489390976      4.27705545600348                     5      49.2139692189302
489390976      6.41851845600348                     5      33.2239692189302
489390976      6.41851845600348                     5      35.6839692189302
489390976      6.41851845600348                     5      38.1439692189302
489390976      6.41851845600348                     5      40.6039692189302
489390976      6.41851845600348                     5      43.0639692189302
489390976      6.41851845600348                     5      45.5239692189302
489390976      6.41851845600348                     5      47.9839692189302
489390976      5.70481145600348                     5      34.4539692189302
489390976      5.70481145600348                     5      36.9139692189302
489390976      5.70481145600348                     5      39.3739692189302
489390976      5.70481145600348                     5      41.8339692189302
489390976      5.70481145600348                     5      44.2939692189302
489390976      5.70481145600348                     5      46.7539692189302
489390976      5.70481145600348                     5      49.2139692189302
489390976      7.84627445600348                     5      33.2239692189302
489390976      7.84627445600348                     5      35.6839692189302
489390976      7.84627445600348                     5      38.1439692189302
489390976      7.84627445600348                     5      40.6039692189302
489390976      7.84627445600348                     5      43.0639692189302
489390976      7.84627445600348                     5      45.5239692189302
489390976      7.84627445600348                     5      47.9839692189302
489390976      8.55998045600348                     5      34.4539692189302
489390976      8.55998045600348                     5      36.9139692189302
489390976      8.55998045600348                     5      39.3739692189302
489390976      8.55998045600348                     5      41.8339692189302
489390976      8.55998045600348                     5      44.2939692189302
489390976      8.55998045600348                     5      46.7539692189302
489390976      8.55998045600348                     5      49.2139692189302
489390976      10.7014434560035                     5      33.2239692189302
489390976      10.7014434560035                     5      35.6839692189302
489390976      10.7014434560035                     5      38.1439692189302
489390976      10.7014434560035                     5      40.6039692189302
489390976      10.7014434560035                     5      43.0639692189302
489390976      10.7014434560035                     5      45.5239692189302
489390976      10.7014434560035                     5      47.9839692189302
489390976      9.98773645600348                     5      34.4539692189302
489390976      9.98773645600348                     5      36.9139692189302
489390976      9.98773645600348                     5      39.3739692189302
489390976      9.98773645600348                     5      41.8339692189302
489390976      9.98773645600348                     5      44.2939692189302
489390976      9.98773645600348                     5      46.7539692189302
489390976      9.98773645600348                     5      49.2139692189302
489390976      12.1291994560035                     5      33.2239692189302
489390976      12.1291994560035                     5      35.6839692189302
489390976      12.1291994560035                     5      38.1439692189302
489390976      12.1291994560035                     5      40.6039692189302
489390976      12.1291994560035                     5      43.0639692189302
489390976      12.1291994560035                     5      45.5239692189302
489390976      12.1291994560035                     5      47.9839692189302
489390976      12.8429054560035                     5      34.4539692189302
489390976      12.8429054560035                     5      36.9139692189302
489390976      12.8429054560035                     5      39.3739692189302
489390976      12.8429054560035                     5      41.8339692189302
489390976      12.8429054560035                     5      44.2939692189302
489390976      12.8429054560035                     5      46.7539692189302
489390976      12.8429054560035                     5      49.2139692189302
489390976      14.9843684560035                     5      33.2239692189302
489390976      14.9843684560035                     5      35.6839692189302
489390976      14.9843684560035                     5      38.1439692189302