search structure

300 atoms
2  atom types

0   17.131700 xlo xhi
0   10.000000 ylo yhi
0   50.000000 zlo zhi

Atoms

1 2 17.123709 5.000000 34.448810
2 2 17.123709 5.000000 36.908810
3 2 17.123709 5.000000 39.368810
4 2 17.123709 5.000000 41.828810
5 2 17.123709 5.000000 44.288810
6 2 17.123709 5.000000 46.748810
7 2 17.123709 5.000000 49.208810
8 2 2.133472 5.000000 33.218810
9 2 2.133472 5.000000 35.678810
10 2 2.133472 5.000000 38.138810
11 2 2.133472 5.000000 40.598810
12 2 2.133472 5.000000 43.058810
13 2 2.133472 5.000000 45.518810
14 2 2.133472 5.000000 47.978810
15 2 1.419765 5.000000 34.448810
16 2 1.419765 5.000000 36.908810
17 2 1.419765 5.000000 39.368810
18 2 1.419765 5.000000 41.828810
19 2 1.419765 5.000000 44.288810
20 2 1.419765 5.000000 46.748810
21 2 1.419765 5.000000 49.208810
22 2 3.561228 5.000000 33.218810
23 2 3.561228 5.000000 35.678810
24 2 3.561228 5.000000 38.138810
25 2 3.561228 5.000000 40.598810
26 2 3.561228 5.000000 43.058810
27 2 3.561228 5.000000 45.518810
28 2 3.561228 5.000000 47.978810
29 2 4.274934 5.000000 34.448810
30 2 4.274934 5.000000 36.908810
31 1 4.274934 5.000000 39.368810
32 1 4.274934 5.000000 41.828810
33 1 4.274934 5.000000 44.288810
34 1 4.274934 5.000000 46.748810
35 1 4.274934 5.000000 49.208810
36 1 6.416397 5.000000 33.218810
37 1 6.416397 5.000000 35.678810
38 1 6.416397 5.000000 38.138810
39 1 6.416397 5.000000 40.598810
40 1 6.416397 5.000000 43.058810
41 1 6.416397 5.000000 45.518810
42 1 6.416397 5.000000 47.978810
43 1 5.702690 5.000000 34.448810
44 1 5.702690 5.000000 36.908810
45 1 5.702690 5.000000 39.368810
46 1 5.702690 5.000000 41.828810
47 1 5.702690 5.000000 44.288810
48 1 5.702690 5.000000 46.748810
49 1 5.702690 5.000000 49.208810
50 1 7.844153 5.000000 33.218810
51 1 7.844153 5.000000 35.678810
52 1 7.844153 5.000000 38.138810
53 1 7.844153 5.000000 40.598810
54 1 7.844153 5.000000 43.058810
55 1 7.844153 5.000000 45.518810
56 1 7.844153 5.000000 47.978810
57 1 8.557859 5.000000 34.448810
58 1 8.557859 5.000000 36.908810
59 1 8.557859 5.000000 39.368810
60 1 8.557859 5.000000 41.828810
61 1 8.557859 5.000000 44.288810
62 1 8.557859 5.000000 46.748810
63 1 8.557859 5.000000 49.208810
64 1 10.699322 5.000000 33.218810
65 1 10.699322 5.000000 35.678810
66 1 10.699322 5.000000 38.138810
67 1 10.699322 5.000000 40.598810
68 1 10.699322 5.000000 43.058810
69 1 10.699322 5.000000 45.518810
70 1 10.699322 5.000000 47.978810
71 1 9.985615 5.000000 34.448810
72 1 9.985615 5.000000 36.908810
73 1 9.985615 5.000000 39.368810
74 1 9.985615 5.000000 41.828810
75 1 9.985615 5.000000 44.288810
76 1 9.985615 5.000000 46.748810
77 1 9.985615 5.000000 49.208810
78 1 12.127078 5.000000 33.218810
79 1 12.127078 5.000000 35.678810
80 1 12.127078 5.000000 38.138810
81 1 12.127078 5.000000 40.598810
82 1 12.127078 5.000000 43.058810
83 1 12.127078 5.000000 45.518810
84 1 12.127078 5.000000 47.978810
85 1 12.840784 5.000000 34.448810
86 1 12.840784 5.000000 36.908810
87 1 12.840784 5.000000 39.368810
88 1 12.840784 5.000000 41.828810
89 1 12.840784 5.000000 44.288810
90 1 12.840784 5.000000 46.748810
91 1 12.840784 5.000000 49.208810
92 1 14.982247 5.000000 33.218810
93 1 14.982247 5.000000 35.678810
94 1 14.982247 5.000000 38.138810
95 1 14.982247 5.000000 40.598810
96 1 14.982247 5.000000 43.058810
97 1 14.982247 5.000000 45.518810
98 1 14.982247 5.000000 47.978810
99 1 14.268540 5.000000 34.448810
100 1 14.268540 5.000000 36.908810
101 1 14.268540 5.000000 39.368810
102 1 14.268540 5.000000 41.828810
103 1 14.268540 5.000000 44.288810
104 1 14.268540 5.000000 46.748810
105 1 14.268540 5.000000 49.208810
106 1 16.410003 5.000000 33.218810
107 1 16.410003 5.000000 35.678810
108 1 16.410003 5.000000 38.138810
109 1 16.410003 5.000000 40.598810
110 1 16.410003 5.000000 43.058810
111 1 16.410003 5.000000 45.518810
112 1 16.410003 5.000000 47.978810
113 2 16.553566 5.000000 50.196310
114 2 1.989737 5.000000 50.196310
115 2 3.707019 5.000000 50.197310
116 2 6.272662 5.000000 50.196310
117 2 7.989944 5.000000 50.197310
118 2 10.555587 5.000000 50.196310
119 2 12.272869 5.000000 50.197310
120 2 14.838512 5.000000 50.196310
121 1 -0.039917 5.000000 8.565500
122 1 -0.039917 5.000000 12.826500
123 1 -0.039917 5.000000 17.087500
124 1 -0.039917 5.000000 21.348000
125 1 -0.039917 5.000000 9.986000
126 1 -0.039917 5.000000 14.246500
127 1 -0.039917 5.000000 18.507500
128 1 -0.039917 5.000000 22.768500
129 1 15.868066 5.000000 10.696000
130 1 15.868066 5.000000 14.957000
131 1 15.868066 5.000000 19.217500
132 1 15.868066 5.000000 23.478500
133 1 15.868066 5.000000 7.855500
134 1 15.868066 5.000000 12.116500
135 1 15.868066 5.000000 16.377000
136 1 15.868066 5.000000 20.638000
137 1 14.644348 5.000000 8.565500
138 1 14.644348 5.000000 12.826500
139 1 14.644348 5.000000 17.087500
140 1 14.644348 5.000000 21.348000
141 1 13.420631 5.000000 10.696000
142 1 13.420631 5.000000 14.957000
143 1 13.420631 5.000000 19.217500
144 1 13.420631 5.000000 23.478500
145 1 14.644348 5.000000 9.986000
146 1 14.644348 5.000000 14.246500
147 1 14.644348 5.000000 18.507500
148 1 14.644348 5.000000 22.768500
149 1 13.420631 5.000000 7.855500
150 1 13.420631 5.000000 12.116500
151 1 13.420631 5.000000 16.377000
152 1 13.420631 5.000000 20.638000
153 1 12.197085 5.000000 8.565500
154 1 12.197085 5.000000 12.826500
155 1 12.197085 5.000000 17.087500
156 1 12.197085 5.000000 21.348000
157 1 10.973368 5.000000 10.696000
158 1 10.973368 5.000000 14.957000
159 1 10.973368 5.000000 19.217500
160 1 10.973368 5.000000 23.478500
161 1 12.197085 5.000000 9.986000
162 1 12.197085 5.000000 14.246500
163 1 12.197085 5.000000 18.507500
164 1 12.197085 5.000000 22.768500
165 1 10.973368 5.000000 7.855500
166 1 10.973368 5.000000 12.116500
167 1 10.973368 5.000000 16.377000
168 1 10.973368 5.000000 20.638000
169 1 9.749650 5.000000 8.565500
170 1 9.749650 5.000000 12.826500
171 1 9.749650 5.000000 17.087500
172 1 9.749650 5.000000 21.348000
173 1 8.525933 5.000000 10.696000
174 1 8.525933 5.000000 14.957000
175 1 8.525933 5.000000 19.217500
176 1 8.525933 5.000000 23.478500
177 1 9.749650 5.000000 9.986000
178 1 9.749650 5.000000 14.246500
179 1 9.749650 5.000000 18.507500
180 1 9.749650 5.000000 22.768500
181 1 8.525933 5.000000 7.855500
182 1 8.525933 5.000000 12.116500
183 1 8.525933 5.000000 16.377000
184 1 8.525933 5.000000 20.638000
185 1 7.302216 5.000000 8.565500
186 1 7.302216 5.000000 12.826500
187 1 7.302216 5.000000 17.087500
188 1 7.302216 5.000000 21.348000
189 1 6.078498 5.000000 10.696000
190 1 6.078498 5.000000 14.957000
191 1 6.078498 5.000000 19.217500
192 1 6.078498 5.000000 23.478500
193 1 7.302216 5.000000 9.986000
194 1 7.302216 5.000000 14.246500
195 1 7.302216 5.000000 18.507500
196 1 7.302216 5.000000 22.768500
197 1 6.078498 5.000000 7.855500
198 1 6.078498 5.000000 12.116500
199 1 6.078498 5.000000 16.377000
200 1 6.078498 5.000000 20.638000
201 1 4.854781 5.000000 8.565500
202 1 4.854781 5.000000 12.826500
203 1 4.854781 5.000000 17.087500
204 1 4.854781 5.000000 21.348000
205 1 3.631235 5.000000 10.696000
206 1 3.631235 5.000000 14.957000
207 1 3.631235 5.000000 19.217500
208 1 3.631235 5.000000 23.478500
209 1 4.854781 5.000000 9.986000
210 1 4.854781 5.000000 14.246500
211 1 4.854781 5.000000 18.507500
212 1 4.854781 5.000000 22.768500
213 1 3.631235 5.000000 7.855500
214 1 3.631235 5.000000 12.116500
215 1 3.631235 5.000000 16.377000
216 1 3.631235 5.000000 20.638000
217 1 2.407518 5.000000 8.565500
218 1 2.407518 5.000000 12.826500
219 1 2.407518 5.000000 17.087500
220 1 2.407518 5.000000 21.348000
221 1 1.183800 5.000000 10.696000
222 1 1.183800 5.000000 14.957000
223 1 1.183800 5.000000 19.217500
224 1 1.183800 5.000000 23.478500
225 1 2.407518 5.000000 9.986000
226 1 2.407518 5.000000 14.246500
227 1 2.407518 5.000000 18.507500
228 1 2.407518 5.000000 22.768500
229 1 1.183800 5.000000 7.855500
230 1 1.183800 5.000000 12.116500
231 1 1.183800 5.000000 16.377000
232 1 1.183800 5.000000 20.638000
233 2 15.865667 5.000000 6.715500
234 2 13.423030 5.000000 6.715500
235 2 10.975766 5.000000 6.715500
236 2 8.528332 5.000000 6.715500
237 2 6.080897 5.000000 6.715500
238 2 3.633634 5.000000 6.715500
239 2 1.181402 5.000000 6.715500
240 2 4.253996 0.871150 25.057443
241 2 15.330273 2.071482 23.500000
242 2 7.234898 8.759762 24.859856
243 2 7.579372 8.620189 23.500000
244 2 12.248734 3.727661 26.973051
245 2 10.211144 4.791021 23.500000
246 2 15.811651 5.019784 24.085531
247 2 12.671143 6.232398 23.500000
248 2 15.392250 8.748961 26.064703
249 2 1.116902 9.305573 28.514003
250 2 4.790640 3.954250 26.859910
251 2 16.576254 2.540354 27.678016
252 2 1.640311 9.251766 26.925765
253 2 9.460792 1.110952 27.417705
254 2 13.073876 2.436866 24.978352
255 2 14.590826 5.065478 29.920134
256 2 5.709853 5.848796 28.449786
257 2 14.882832 7.569173 27.604733
258 2 7.857491 0.117576 32.053120
259 2 0.469125 4.053655 33.142310
260 2 0.879628 3.204797 29.432358
261 2 7.107183 4.184453 33.142310
262 2 8.336997 5.314130 30.184937
263 2 9.877166 0.626931 27.869792
264 2 14.429358 2.749946 28.629529
265 2 14.782109 3.472486 30.253140
266 2 16.341443 5.578267 31.649285
267 2 10.577471 5.723896 30.639108
268 1 8.759487 1.223013 25.729895
269 1 7.308106 3.448315 25.743084
270 1 7.359450 5.945837 25.190095
271 1 1.035332 7.709700 25.887262
272 1 4.735544 8.845003 23.500000
273 1 12.412904 1.134263 25.288637
274 1 11.404131 0.806557 24.792958
275 1 4.856301 4.375444 24.567955
276 1 13.116863 6.494531 25.344521
277 1 15.035962 7.806187 24.347256
278 1 10.380057 9.023620 25.674139
279 1 15.108536 0.953688 29.956000
280 1 16.450654 3.538815 30.383936
281 1 15.805679 2.269707 24.196736
282 1 12.259392 5.208862 28.341961
283 1 0.230476 8.414192 25.159742
284 1 5.279815 1.728300 26.145521
285 1 10.499369 5.443096 27.792954
286 1 9.797164 5.248424 26.546829
287 1 12.593174 6.310939 28.782060
288 1 6.335252 7.561409 25.390853
289 1 2.118282 9.438940 27.061650
290 1 4.264701 7.607359 32.208556
291 1 6.694189 9.317049 32.326654
292 1 8.900943 1.781768 33.142310
293 1 1.270090 8.054994 29.403726
294 1 6.517022 9.616538 29.403504
295 1 6.656150 3.079514 32.815613
296 1 14.051459 6.077157 31.405670
297 1 12.349362 7.017176 28.276929
298 1 17.031715 6.653477 30.795026
299 1 14.297196 9.974951 28.833318
300 1 7.971410 9.655217 31.947183
