300
Atoms. Timestep: 0
306361248              16.08131                     5             36.415897
306361248              16.08131                     5             38.875897
306361248              16.08131                     5             41.335897
306361248              16.08131                     5             43.795897
306361248              16.08131                     5             46.255897
306361248              16.08131                     5             48.715897
306361248              16.08131                     5              1.175897
306361248              1.091073                     5             35.185897
306361248              1.091073                     5             37.645897
306361248              1.091073                     5             40.105897
306361248              1.091073                     5             42.565897
306361248              1.091073                     5             45.025897
306361248              1.091073                     5             47.485897
306361248              1.091073                     5             49.945897
306361248              0.377366                     5             36.415897
306361248              0.377366                     5             38.875897
306361248              0.377366                     5             41.335897
306361248              0.377366                     5             43.795897
306361248              0.377366                     5             46.255897
306361248              0.377366                     5             48.715897
306361248              0.377366                     5              1.175897
306361248              2.518829                     5             35.185897
306361248              2.518829                     5             37.645897
306361248              2.518829                     5             40.105897
306361248              2.518829                     5             42.565897
306361248              2.518829                     5             45.025897
306361248              2.518829                     5             47.485897
306361248              2.518829                     5             49.945897
306361248              3.232535                     5             36.415897
306361248              3.232535                     5             38.875897
306361216              3.232535                     5             41.335897
306361216              3.232535                     5             43.795897
306361216              3.232535                     5             46.255897
306361216              3.232535                     5             48.715897
306361216              3.232535                     5              1.175897
306361216              5.373998                     5             35.185897
306361216              5.373998                     5             37.645897
306361216              5.373998                     5             40.105897
306361216              5.373998                     5             42.565897
306361216              5.373998                     5             45.025897
306361216              5.373998                     5             47.485897
306361216              5.373998                     5             49.945897
306361216              4.660291                     5             36.415897
306361216              4.660291                     5             38.875897
306361216              4.660291                     5             41.335897
306361216              4.660291                     5             43.795897
306361216              4.660291                     5             46.255897
306361216              4.660291                     5             48.715897
306361216              4.660291                     5              1.175897
306361216              6.801754                     5             35.185897
306361216              6.801754                     5             37.645897
306361216              6.801754                     5             40.105897
306361216              6.801754                     5             42.565897
306361216              6.801754                     5             45.025897
306361216              6.801754                     5             47.485897
306361216              6.801754                     5             49.945897
306361216               7.51546                     5             36.415897
306361216               7.51546                     5             38.875897
306361216               7.51546                     5             41.335897
306361216               7.51546                     5             43.795897
306361216               7.51546                     5             46.255897
306361216               7.51546                     5             48.715897
306361216               7.51546                     5              1.175897
306361216              9.656923                     5             35.185897
306361216              9.656923                     5             37.645897
306361216              9.656923                     5             40.105897
306361216              9.656923                     5             42.565897
306361216              9.656923                     5             45.025897
306361216              9.656923                     5             47.485897
306361216              9.656923                     5             49.945897
306361216              8.943216                     5             36.415897
306361216              8.943216                     5             38.875897
306361216              8.943216                     5             41.335897
306361216              8.943216                     5             43.795897
306361216              8.943216                     5             46.255897
306361216              8.943216                     5             48.715897
306361216              8.943216                     5              1.175897
306361216             11.084679                     5             35.185897
306361216             11.084679                     5             37.645897
306361216             11.084679                     5             40.105897
306361216             11.084679                     5             42.565897
306361216             11.084679                     5             45.025897
306361216             11.084679                     5             47.485897
306361216             11.084679                     5             49.945897
306361216             11.798385                     5             36.415897
306361216             11.798385                     5             38.875897
306361216             11.798385                     5             41.335897
306361216             11.798385                     5             43.795897
306361216             11.798385                     5             46.255897
306361216             11.798385                     5             48.715897
306361216             11.798385                     5              1.175897
306361216             13.939848                     5             35.185897
306361216             13.939848                     5             37.645897
306361216             13.939848                     5             40.105897
306361216             13.939848                     5             42.565897
306361216             13.939848                     5             45.025897
306361216             13.939848                     5             47.485897
306361216             13.939848                     5             49.945897
306361216             13.226141                     5             36.415897
306361216             13.226141                     5             38.875897
306361216             13.226141                     5             41.335897
306361216             13.226141                     5             43.795897
306361216             13.226141                     5             46.255897
306361216             13.226141                     5             48.715897
306361216             13.226141                     5              1.175897
306361216             15.367604                     5             35.185897
306361216             15.367604                     5             37.645897
306361216             15.367604                     5             40.105897
306361216             15.367604                     5             42.565897
306361216             15.367604                     5             45.025897
306361216             15.367604                     5             47.485897
306361216             15.367604                     5             49.945897
306361248             15.511167                     5              2.163397
306361248              0.947338                     5              2.163397
306361248               2.66462                     5              2.164397
306361248              5.230263                     5              2.163397
306361248              6.947545                     5              2.164397
306361248              9.513188                     5              2.163397
306361248              11.23047                     5              2.164397
306361248             13.796113                     5              2.163397
306361216             17.091783                     5                8.5655
306361216             17.091783                     5               12.8265
306361216             17.091783                     5               17.0875
306361216             17.091783                     5                21.348
306361216             17.091783                     5                 9.986
306361216             17.091783                     5               14.2465
306361216             17.091783                     5               18.5075
306361216             17.091783                     5               22.7685
306361216             15.868066                     5                10.696
306361216             15.868066                     5                14.957
306361216             15.868066                     5               19.2175
306361216             15.868066                     5               23.4785
306361216             15.868066                     5                7.8555
306361216             15.868066                     5               12.1165
306361216             15.868066                     5                16.377
306361216             15.868066                     5                20.638
306361216             14.644348                     5                8.5655
306361216             14.644348                     5               12.8265
306361216             14.644348                     5               17.0875
306361216             14.644348                     5                21.348
306361216             13.420631                     5                10.696
306361216             13.420631                     5                14.957
306361216             13.420631                     5               19.2175
306361216             13.420631                     5               23.4785
306361216             14.644348                     5                 9.986
306361216             14.644348                     5               14.2465
306361216             14.644348                     5               18.5075
306361216             14.644348                     5               22.7685
306361216             13.420631                     5                7.8555
306361216             13.420631                     5               12.1165
306361216             13.420631                     5                16.377
306361216             13.420631                     5                20.638
306361216             12.197085                     5                8.5655
306361216             12.197085                     5               12.8265
306361216             12.197085                     5               17.0875
306361216             12.197085                     5                21.348
306361216             10.973368                     5                10.696
306361216             10.973368                     5                14.957
306361216             10.973368                     5               19.2175
306361216             10.973368                     5               23.4785
306361216             12.197085                     5                 9.986
306361216             12.197085                     5               14.2465
306361216             12.197085                     5               18.5075
306361216             12.197085                     5               22.7685
306361216             10.973368                     5                7.8555
306361216             10.973368                     5               12.1165
306361216             10.973368                     5                16.377
306361216             10.973368                     5                20.638
306361216               9.74965                     5                8.5655
306361216               9.74965                     5               12.8265
306361216               9.74965                     5               17.0875
306361216               9.74965                     5                21.348
306361216              8.525933                     5                10.696
306361216              8.525933                     5                14.957
306361216              8.525933                     5               19.2175
306361216              8.525933                     5               23.4785
306361216               9.74965                     5                 9.986
306361216               9.74965                     5               14.2465
306361216               9.74965                     5               18.5075
306361216               9.74965                     5               22.7685
306361216              8.525933                     5                7.8555
306361216              8.525933                     5               12.1165
306361216              8.525933                     5                16.377
306361216              8.525933                     5                20.638
306361216              7.302216                     5                8.5655
306361216              7.302216                     5               12.8265
306361216              7.302216                     5               17.0875
306361216              7.302216                     5                21.348
306361216              6.078498                     5                10.696
306361216              6.078498                     5                14.957
306361216              6.078498                     5               19.2175
306361216              6.078498                     5               23.4785
306361216              7.302216                     5                 9.986
306361216              7.302216                     5               14.2465
306361216              7.302216                     5               18.5075
306361216              7.302216                     5               22.7685
306361216              6.078498                     5                7.8555
306361216              6.078498                     5               12.1165
306361216              6.078498                     5                16.377
306361216              6.078498                     5                20.638
306361216              4.854781                     5                8.5655
306361216              4.854781                     5               12.8265
306361216              4.854781                     5               17.0875
306361216              4.854781                     5                21.348
306361216              3.631235                     5                10.696
306361216              3.631235                     5                14.957
306361216              3.631235                     5               19.2175
306361216              3.631235                     5               23.4785
306361216              4.854781                     5                 9.986
306361216              4.854781                     5               14.2465
306361216              4.854781                     5               18.5075
306361216              4.854781                     5               22.7685
306361216              3.631235                     5                7.8555
306361216              3.631235                     5               12.1165
306361216              3.631235                     5                16.377
306361216              3.631235                     5                20.638
306361216              2.407518                     5                8.5655
306361216              2.407518                     5               12.8265
306361216              2.407518                     5               17.0875
306361216              2.407518                     5                21.348
306361216                1.1838                     5                10.696
306361216                1.1838                     5                14.957
306361216                1.1838                     5               19.2175
306361216                1.1838                     5               23.4785
306361216              2.407518                     5                 9.986
306361216              2.407518                     5               14.2465
306361216              2.407518                     5               18.5075
306361216              2.407518                     5               22.7685
306361216                1.1838                     5                7.8555
306361216                1.1838                     5               12.1165
306361216                1.1838                     5                16.377
306361216                1.1838                     5                20.638
306361248             15.865667                     5                6.7155
306361248              13.42303                     5                6.7155
306361248             10.975766                     5                6.7155
306361248              8.528332                     5                6.7155
306361248              6.080897                     5                6.7155
306361248              3.633634                     5                6.7155
306361248              1.181402                     5                6.7155
306361248              3.614247              0.473081             25.257582
306361248              0.341448              1.811347             25.545454
306361248              3.127723              6.923693             25.599552
306361248              3.711392              7.145863             24.443628
306361248             14.429353              0.638664             26.890164
306361248             16.893456              2.306092             27.149179
306361248              7.655612              7.476153             24.777928
306361248              5.110398              9.216533             26.081184
306361248             15.762358              9.254265             23.582043
306361248              7.143866               4.86592             27.441885
306361248              2.558186              5.427159             29.290189
306361248              1.539165                7.6605              28.91658
306361248              1.726747              9.518085             27.156658
306361248              9.454115              5.292295             28.159475
306361248             11.182939               6.26989              30.34323
306361248             11.420705              6.700096             27.569459
306361248             16.493504              7.764306             28.804336
306361248              8.629386              7.795917              28.90499
306361248              9.683419              1.404108             33.318526
306361248               0.50325              2.161598              32.38617
306361248              8.565379              3.687112              30.67073
306361248              8.577334              6.816463             33.848529
306361248             10.792055              8.727942             35.096751
306361248             12.519973              0.802378             34.880368
306361248             16.714054               1.40327             32.646843
306361248             13.898085              2.649849             31.874089
306361248             12.728341              3.877883             31.222072
306361248             12.105129              7.584213             31.526131
306361216              3.017082              3.260831             25.296067
306361216              8.368841              3.515011             24.009723
306361216              8.887406              5.939952             25.816959
306361216              2.132814              7.979382             23.920659
306361216              3.164643              9.634065             24.416547
306361216             16.239427               0.22373             24.910797
306361216             15.430484              0.897456             25.090253
306361216             15.810201              5.455188             23.934462
306361216             14.621146              7.256848             24.499999
306361216             16.426101              8.394325             25.195641
306361216             16.200058              8.962106             24.462342
306361216              3.767583              1.521503             26.272621
306361216              0.279416              1.813618              27.18101
306361216              7.418375              7.906044             28.232671
306361216               6.89802               8.09799             26.678039
306361216              5.242418              8.217206             28.642859
306361216              9.581623              4.705148               28.9457
306361216             11.727043              4.806859             28.136014
306361216              7.723308              5.896047             29.101624
306361216             11.576487              6.422586             26.051397
306361216              9.219939              8.445609             26.709509
306361216             10.363579              9.823961              26.75411
306361216              0.984663              1.573132             35.069069
306361216              0.180011              3.292814             33.525233
306361216              3.257812              7.157067             34.664162
306361216              0.367218              7.223527             29.499496
306361216              5.306624              8.936322             29.701362
306361216             16.572493              1.743416             30.334417
306361216              9.919728              2.519616             34.537653
306361216              8.961288               5.87806             31.042467
306361216              7.435023              6.359032             30.335374
306361216             11.632739              9.006515             33.917405
306361216              8.110056              9.943177             30.276786
300
Atoms. Timestep: 10
306361248      16.0812952505071                     5      36.4159979880734
306361248      16.0812952505071                     5      38.8759979880734
306361248      16.0812952505071                     5      41.3359979880734
306361248      16.0812952505071                     5      43.7959979880734
306361248      16.0812952505071                     5      46.2559979880734
306361248      16.0812952505071                     5      48.7159979880734
306361248      16.0812952505071                     5      1.17599798807342
306361248      1.09105825050712                     5      35.1859979880734
306361248      1.09105825050712                     5      37.6459979880734
306361248      1.09105825050712                     5      40.1059979880734
306361248      1.09105825050712                     5      42.5659979880734
306361248      1.09105825050712                     5      45.0259979880734
306361248      1.09105825050712                     5      47.4859979880734
306361248      1.09105825050712                     5      49.9459979880734
306361248     0.377351250507118                     5      36.4159979880734
306361248     0.377351250507118                     5      38.8759979880734
306361248     0.377351250507118                     5      41.3359979880734
306361248     0.377351250507118                     5      43.7959979880734
306361248     0.377351250507118                     5      46.2559979880734
306361248     0.377351250507118                     5      48.7159979880734
306361248     0.377351250507118                     5      1.17599798807342
306361248      2.51881425050712                     5      35.1859979880734
306361248      2.51881425050712                     5      37.6459979880734
306361248      2.51881425050712                     5      40.1059979880734
306361248      2.51881425050712                     5      42.5659979880734
306361248      2.51881425050712                     5      45.0259979880734
306361248      2.51881425050712                     5      47.4859979880734
306361248      2.51881425050712                     5      49.9459979880734
306361248      3.23252025050712                     5      36.4159979880734
306361248      3.23252025050712                     5      38.8759979880734
306361216      3.23252025050712                     5      41.3359979880734
306361216      3.23252025050712                     5      43.7959979880734
306361216      3.23252025050712                     5      46.2559979880734
306361216      3.23252025050712                     5      48.7159979880734
306361216      3.23252025050712                     5      1.17599798807342
306361216      5.37398325050712                     5      35.1859979880734
306361216      5.37398325050712                     5      37.6459979880734
306361216      5.37398325050712                     5      40.1059979880734
306361216      5.37398325050712                     5      42.5659979880734
306361216      5.37398325050712                     5      45.0259979880734
306361216      5.37398325050712                     5      47.4859979880734
306361216      5.37398325050712                     5      49.9459979880734
306361216      4.66027625050712                     5      36.4159979880734
306361216      4.66027625050712                     5      38.8759979880734
306361216      4.66027625050712                     5      41.3359979880734
306361216      4.66027625050712                     5      43.7959979880734
306361216      4.66027625050712                     5      46.2559979880734
306361216      4.66027625050712                     5      48.7159979880734
306361216      4.66027625050712                     5      1.17599798807342
306361216      6.80173925050712                     5      35.1859979880734
306361216      6.80173925050712                     5      37.6459979880734
306361216      6.80173925050712                     5      40.1059979880734
306361216      6.80173925050712                     5      42.5659979880734
306361216      6.80173925050712                     5      45.0259979880734
306361216      6.80173925050712                     5      47.4859979880734
306361216      6.80173925050712                     5      49.9459979880734
306361216      7.51544525050712                     5      36.4159979880734
306361216      7.51544525050712                     5      38.8759979880734
306361216      7.51544525050712                     5      41.3359979880734
306361216      7.51544525050712                     5      43.7959979880734
306361216      7.51544525050712                     5      46.2559979880734
306361216      7.51544525050712                     5      48.7159979880734
306361216      7.51544525050712                     5      1.17599798807342
306361216      9.65690825050712                     5      35.1859979880734
306361216      9.65690825050712                     5      37.6459979880734
306361216      9.65690825050712                     5      40.1059979880734
306361216      9.65690825050712                     5      42.5659979880734
306361216      9.65690825050712                     5      45.0259979880734
306361216      9.65690825050712                     5      47.4859979880734
306361216      9.65690825050712                     5      49.9459979880734
306361216      8.94320125050712                     5      36.4159979880734
306361216      8.94320125050712                     5      38.8759979880734
306361216      8.94320125050712                     5      41.3359979880734
306361216      8.94320125050712                     5      43.7959979880734
306361216      8.94320125050712                     5      46.2559979880734
306361216      8.94320125050712                     5      48.7159979880734
306361216      8.94320125050712                     5      1.17599798807342
306361216      11.0846642505071                     5      35.1859979880734
306361216      11.0846642505071                     5      37.6459979880734
306361216      11.0846642505071                     5      40.1059979880734
306361216      11.0846642505071                     5      42.5659979880734
306361216      11.0846642505071                     5      45.0259979880734
306361216      11.0846642505071                     5      47.4859979880734
306361216      11.0846642505071                     5      49.9459979880734
306361216      11.7983702505071                     5      36.4159979880734
306361216      11.7983702505071                     5      38.8759979880734
306361216      11.7983702505071                     5      41.3359979880734
306361216      11.7983702505071                     5      43.7959979880734
306361216      11.7983702505071                     5      46.2559979880734
306361216      11.7983702505071                     5      48.7159979880734
306361216      11.7983702505071                     5      1.17599798807342
306361216      13.9398332505071                     5      35.1859979880734
306361216      13.9398332505071                     5      37.6459979880734
306361216      13.9398332505071                     5      40.1059979880734