search structure

300 atoms
2  atom types

0   17.131700 xlo xhi
0   10.000000 ylo yhi
0   50.000000 zlo zhi

Atoms

1 2 16.081310 5.000000 36.415897
2 2 16.081310 5.000000 38.875897
3 2 16.081310 5.000000 41.335897
4 2 16.081310 5.000000 43.795897
5 2 16.081310 5.000000 46.255897
6 2 16.081310 5.000000 48.715897
7 2 16.081310 5.000000 51.175897
8 2 1.091073 5.000000 35.185897
9 2 1.091073 5.000000 37.645897
10 2 1.091073 5.000000 40.105897
11 2 1.091073 5.000000 42.565897
12 2 1.091073 5.000000 45.025897
13 2 1.091073 5.000000 47.485897
14 2 1.091073 5.000000 49.945897
15 2 0.377366 5.000000 36.415897
16 2 0.377366 5.000000 38.875897
17 2 0.377366 5.000000 41.335897
18 2 0.377366 5.000000 43.795897
19 2 0.377366 5.000000 46.255897
20 2 0.377366 5.000000 48.715897
21 2 0.377366 5.000000 51.175897
22 2 2.518829 5.000000 35.185897
23 2 2.518829 5.000000 37.645897
24 2 2.518829 5.000000 40.105897
25 2 2.518829 5.000000 42.565897
26 2 2.518829 5.000000 45.025897
27 2 2.518829 5.000000 47.485897
28 2 2.518829 5.000000 49.945897
29 2 3.232535 5.000000 36.415897
30 2 3.232535 5.000000 38.875897
31 1 3.232535 5.000000 41.335897
32 1 3.232535 5.000000 43.795897
33 1 3.232535 5.000000 46.255897
34 1 3.232535 5.000000 48.715897
35 1 3.232535 5.000000 51.175897
36 1 5.373998 5.000000 35.185897
37 1 5.373998 5.000000 37.645897
38 1 5.373998 5.000000 40.105897
39 1 5.373998 5.000000 42.565897
40 1 5.373998 5.000000 45.025897
41 1 5.373998 5.000000 47.485897
42 1 5.373998 5.000000 49.945897
43 1 4.660291 5.000000 36.415897
44 1 4.660291 5.000000 38.875897
45 1 4.660291 5.000000 41.335897
46 1 4.660291 5.000000 43.795897
47 1 4.660291 5.000000 46.255897
48 1 4.660291 5.000000 48.715897
49 1 4.660291 5.000000 51.175897
50 1 6.801754 5.000000 35.185897
51 1 6.801754 5.000000 37.645897
52 1 6.801754 5.000000 40.105897
53 1 6.801754 5.000000 42.565897
54 1 6.801754 5.000000 45.025897
55 1 6.801754 5.000000 47.485897
56 1 6.801754 5.000000 49.945897
57 1 7.515460 5.000000 36.415897
58 1 7.515460 5.000000 38.875897
59 1 7.515460 5.000000 41.335897
60 1 7.515460 5.000000 43.795897
61 1 7.515460 5.000000 46.255897
62 1 7.515460 5.000000 48.715897
63 1 7.515460 5.000000 51.175897
64 1 9.656923 5.000000 35.185897
65 1 9.656923 5.000000 37.645897
66 1 9.656923 5.000000 40.105897
67 1 9.656923 5.000000 42.565897
68 1 9.656923 5.000000 45.025897
69 1 9.656923 5.000000 47.485897
70 1 9.656923 5.000000 49.945897
71 1 8.943216 5.000000 36.415897
72 1 8.943216 5.000000 38.875897
73 1 8.943216 5.000000 41.335897
74 1 8.943216 5.000000 43.795897
75 1 8.943216 5.000000 46.255897
76 1 8.943216 5.000000 48.715897
77 1 8.943216 5.000000 51.175897
78 1 11.084679 5.000000 35.185897
79 1 11.084679 5.000000 37.645897
80 1 11.084679 5.000000 40.105897
81 1 11.084679 5.000000 42.565897
82 1 11.084679 5.000000 45.025897
83 1 11.084679 5.000000 47.485897
84 1 11.084679 5.000000 49.945897
85 1 11.798385 5.000000 36.415897
86 1 11.798385 5.000000 38.875897
87 1 11.798385 5.000000 41.335897
88 1 11.798385 5.000000 43.795897
89 1 11.798385 5.000000 46.255897
90 1 11.798385 5.000000 48.715897
91 1 11.798385 5.000000 51.175897
92 1 13.939848 5.000000 35.185897
93 1 13.939848 5.000000 37.645897
94 1 13.939848 5.000000 40.105897
95 1 13.939848 5.000000 42.565897
96 1 13.939848 5.000000 45.025897
97 1 13.939848 5.000000 47.485897
98 1 13.939848 5.000000 49.945897
99 1 13.226141 5.000000 36.415897
100 1 13.226141 5.000000 38.875897
101 1 13.226141 5.000000 41.335897
102 1 13.226141 5.000000 43.795897
103 1 13.226141 5.000000 46.255897
104 1 13.226141 5.000000 48.715897
105 1 13.226141 5.000000 51.175897
106 1 15.367604 5.000000 35.185897
107 1 15.367604 5.000000 37.645897
108 1 15.367604 5.000000 40.105897
109 1 15.367604 5.000000 42.565897
110 1 15.367604 5.000000 45.025897
111 1 15.367604 5.000000 47.485897
112 1 15.367604 5.000000 49.945897
113 2 15.511167 5.000000 52.163397
114 2 0.947338 5.000000 52.163397
115 2 2.664620 5.000000 52.164397
116 2 5.230263 5.000000 52.163397
117 2 6.947545 5.000000 52.164397
118 2 9.513188 5.000000 52.163397
119 2 11.230470 5.000000 52.164397
120 2 13.796113 5.000000 52.163397
121 1 -0.039917 5.000000 8.565500
122 1 -0.039917 5.000000 12.826500
123 1 -0.039917 5.000000 17.087500
124 1 -0.039917 5.000000 21.348000
125 1 -0.039917 5.000000 9.986000
126 1 -0.039917 5.000000 14.246500
127 1 -0.039917 5.000000 18.507500
128 1 -0.039917 5.000000 22.768500
129 1 15.868066 5.000000 10.696000
130 1 15.868066 5.000000 14.957000
131 1 15.868066 5.000000 19.217500
132 1 15.868066 5.000000 23.478500
133 1 15.868066 5.000000 7.855500
134 1 15.868066 5.000000 12.116500
135 1 15.868066 5.000000 16.377000
136 1 15.868066 5.000000 20.638000
137 1 14.644348 5.000000 8.565500
138 1 14.644348 5.000000 12.826500
139 1 14.644348 5.000000 17.087500
140 1 14.644348 5.000000 21.348000
141 1 13.420631 5.000000 10.696000
142 1 13.420631 5.000000 14.957000
143 1 13.420631 5.000000 19.217500
144 1 13.420631 5.000000 23.478500
145 1 14.644348 5.000000 9.986000
146 1 14.644348 5.000000 14.246500
147 1 14.644348 5.000000 18.507500
148 1 14.644348 5.000000 22.768500
149 1 13.420631 5.000000 7.855500
150 1 13.420631 5.000000 12.116500
151 1 13.420631 5.000000 16.377000
152 1 13.420631 5.000000 20.638000
153 1 12.197085 5.000000 8.565500
154 1 12.197085 5.000000 12.826500
155 1 12.197085 5.000000 17.087500
156 1 12.197085 5.000000 21.348000
157 1 10.973368 5.000000 10.696000
158 1 10.973368 5.000000 14.957000
159 1 10.973368 5.000000 19.217500
160 1 10.973368 5.000000 23.478500
161 1 12.197085 5.000000 9.986000
162 1 12.197085 5.000000 14.246500
163 1 12.197085 5.000000 18.507500
164 1 12.197085 5.000000 22.768500
165 1 10.973368 5.000000 7.855500
166 1 10.973368 5.000000 12.116500
167 1 10.973368 5.000000 16.377000
168 1 10.973368 5.000000 20.638000
169 1 9.749650 5.000000 8.565500
170 1 9.749650 5.000000 12.826500
171 1 9.749650 5.000000 17.087500
172 1 9.749650 5.000000 21.348000
173 1 8.525933 5.000000 10.696000
174 1 8.525933 5.000000 14.957000
175 1 8.525933 5.000000 19.217500
176 1 8.525933 5.000000 23.478500
177 1 9.749650 5.000000 9.986000
178 1 9.749650 5.000000 14.246500
179 1 9.749650 5.000000 18.507500
180 1 9.749650 5.000000 22.768500
181 1 8.525933 5.000000 7.855500
182 1 8.525933 5.000000 12.116500
183 1 8.525933 5.000000 16.377000
184 1 8.525933 5.000000 20.638000
185 1 7.302216 5.000000 8.565500
186 1 7.302216 5.000000 12.826500
187 1 7.302216 5.000000 17.087500
188 1 7.302216 5.000000 21.348000
189 1 6.078498 5.000000 10.696000
190 1 6.078498 5.000000 14.957000
191 1 6.078498 5.000000 19.217500
192 1 6.078498 5.000000 23.478500
193 1 7.302216 5.000000 9.986000
194 1 7.302216 5.000000 14.246500
195 1 7.302216 5.000000 18.507500
196 1 7.302216 5.000000 22.768500
197 1 6.078498 5.000000 7.855500
198 1 6.078498 5.000000 12.116500
199 1 6.078498 5.000000 16.377000
200 1 6.078498 5.000000 20.638000
201 1 4.854781 5.000000 8.565500
202 1 4.854781 5.000000 12.826500
203 1 4.854781 5.000000 17.087500
204 1 4.854781 5.000000 21.348000
205 1 3.631235 5.000000 10.696000
206 1 3.631235 5.000000 14.957000
207 1 3.631235 5.000000 19.217500
208 1 3.631235 5.000000 23.478500
209 1 4.854781 5.000000 9.986000
210 1 4.854781 5.000000 14.246500
211 1 4.854781 5.000000 18.507500
212 1 4.854781 5.000000 22.768500
213 1 3.631235 5.000000 7.855500
214 1 3.631235 5.000000 12.116500
215 1 3.631235 5.000000 16.377000
216 1 3.631235 5.000000 20.638000
217 1 2.407518 5.000000 8.565500
218 1 2.407518 5.000000 12.826500
219 1 2.407518 5.000000 17.087500
220 1 2.407518 5.000000 21.348000
221 1 1.183800 5.000000 10.696000
222 1 1.183800 5.000000 14.957000
223 1 1.183800 5.000000 19.217500
224 1 1.183800 5.000000 23.478500
225 1 2.407518 5.000000 9.986000
226 1 2.407518 5.000000 14.246500
227 1 2.407518 5.000000 18.507500
228 1 2.407518 5.000000 22.768500
229 1 1.183800 5.000000 7.855500
230 1 1.183800 5.000000 12.116500
231 1 1.183800 5.000000 16.377000
232 1 1.183800 5.000000 20.638000
233 2 15.865667 5.000000 6.715500
234 2 13.423030 5.000000 6.715500
235 2 10.975766 5.000000 6.715500
236 2 8.528332 5.000000 6.715500
237 2 6.080897 5.000000 6.715500
238 2 3.633634 5.000000 6.715500
239 2 1.181402 5.000000 6.715500
240 2 3.614247 0.473081 25.257582
241 2 0.341448 1.811347 25.545454
242 2 3.127723 6.923693 25.599552
243 2 3.711392 7.145863 24.443628
244 2 14.429353 0.638664 26.890164
245 2 16.893456 2.306092 27.149179
246 2 7.655612 7.476153 24.777928
247 2 5.110398 9.216533 26.081184
248 2 15.762358 9.254265 23.582043
249 2 7.143866 4.865920 27.441885
250 2 2.558186 5.427159 29.290189
251 2 1.539165 7.660500 28.916580
252 2 1.726747 9.518085 27.156658
253 2 9.454115 5.292295 28.159475
254 2 11.182939 6.269890 30.343230
255 2 11.420705 6.700096 27.569459
256 2 16.493504 7.764306 28.804336
257 2 8.629386 7.795917 28.904990
258 2 9.683419 1.404108 33.318526
259 2 0.503250 2.161598 32.386170
260 2 8.565379 3.687112 30.670730
261 2 8.577334 6.816463 33.848529
262 2 10.792055 8.727942 35.096751
263 2 12.519973 0.802378 34.880368
264 2 16.714054 1.403270 32.646843
265 2 13.898085 2.649849 31.874089
266 2 12.728341 3.877883 31.222072
267 2 12.105129 7.584213 31.526131
268 1 3.017082 3.260831 25.296067
269 1 8.368841 3.515011 24.009723
270 1 8.887406 5.939952 25.816959
271 1 2.132814 7.979382 23.920659
272 1 3.164643 9.634065 24.416547
273 1 16.239427 0.223730 24.910797
274 1 15.430484 0.897456 25.090253
275 1 15.810201 5.455188 23.934462
276 1 14.621146 7.256848 24.499999
277 1 16.426101 8.394325 25.195641
278 1 16.200058 8.962106 24.462342
279 1 3.767583 1.521503 26.272621
280 1 0.279416 1.813618 27.181010
281 1 7.418375 7.906044 28.232671
282 1 6.898020 8.097990 26.678039
283 1 5.242418 8.217206 28.642859
284 1 9.581623 4.705148 28.945700
285 1 11.727043 4.806859 28.136014
286 1 7.723308 5.896047 29.101624
287 1 11.576487 6.422586 26.051397
288 1 9.219939 8.445609 26.709509
289 1 10.363579 9.823961 26.754110
290 1 0.984663 1.573132 35.069069
291 1 0.180011 3.292814 33.525233
292 1 3.257812 7.157067 34.664162
293 1 0.367218 7.223527 29.499496
294 1 5.306624 8.936322 29.701362
295 1 16.572493 1.743416 30.334417
296 1 9.919728 2.519616 34.537653
297 1 8.961288 5.878060 31.042467
298 1 7.435023 6.359032 30.335374
299 1 11.632739 9.006515 33.917405
300 1 8.110056 9.943177 30.276786
