300
Atoms. Timestep: 0
221262752              1.871132                     5               34.3065
221262752              1.871132                     5               36.7665
221262752              1.871132                     5               39.2265
221262752              1.871132                     5               41.6865
221262752              1.871132                     5               44.1465
221262752              1.871132                     5               46.6065
221262752              1.871132                     5               49.0665
221262752              4.012595                     5               33.0765
221262752              4.012595                     5               35.5365
221262752              4.012595                     5               37.9965
221262752              4.012595                     5               40.4565
221262752              4.012595                     5               42.9165
221262752              4.012595                     5               45.3765
221262752              4.012595                     5               47.8365
221262752              3.298888                     5               34.3065
221262752              3.298888                     5               36.7665
221262752              3.298888                     5               39.2265
221262752              3.298888                     5               41.6865
221262752              3.298888                     5               44.1465
221262752              3.298888                     5               46.6065
221262752              3.298888                     5               49.0665
221262752              5.440351                     5               33.0765
221262752              5.440351                     5               35.5365
221262752              5.440351                     5               37.9965
221262752              5.440351                     5               40.4565
221262752              5.440351                     5               42.9165
221262752              5.440351                     5               45.3765
221262752              5.440351                     5               47.8365
221262752              6.154057                     5               34.3065
221262752              6.154057                     5               36.7665
221262720              6.154057                     5               39.2265
221262720              6.154057                     5               41.6865
221262720              6.154057                     5               44.1465
221262720              6.154057                     5               46.6065
221262720              6.154057                     5               49.0665
221262720               8.29552                     5               33.0765
221262720               8.29552                     5               35.5365
221262720               8.29552                     5               37.9965
221262720               8.29552                     5               40.4565
221262720               8.29552                     5               42.9165
221262720               8.29552                     5               45.3765
221262720               8.29552                     5               47.8365
221262720              7.581813                     5               34.3065
221262720              7.581813                     5               36.7665
221262720              7.581813                     5               39.2265
221262720              7.581813                     5               41.6865
221262720              7.581813                     5               44.1465
221262720              7.581813                     5               46.6065
221262720              7.581813                     5               49.0665
221262720              9.723276                     5               33.0765
221262720              9.723276                     5               35.5365
221262720              9.723276                     5               37.9965
221262720              9.723276                     5               40.4565
221262720              9.723276                     5               42.9165
221262720              9.723276                     5               45.3765
221262720              9.723276                     5               47.8365
221262720             10.436982                     5               34.3065
221262720             10.436982                     5               36.7665
221262720             10.436982                     5               39.2265
221262720             10.436982                     5               41.6865
221262720             10.436982                     5               44.1465
221262720             10.436982                     5               46.6065
221262720             10.436982                     5               49.0665
221262720             12.578445                     5               33.0765
221262720             12.578445                     5               35.5365
221262720             12.578445                     5               37.9965
221262720             12.578445                     5               40.4565
221262720             12.578445                     5               42.9165
221262720             12.578445                     5               45.3765
221262720             12.578445                     5               47.8365
221262720             11.864738                     5               34.3065
221262720             11.864738                     5               36.7665
221262720             11.864738                     5               39.2265
221262720             11.864738                     5               41.6865
221262720             11.864738                     5               44.1465
221262720             11.864738                     5               46.6065
221262720             11.864738                     5               49.0665
221262720             14.006201                     5               33.0765
221262720             14.006201                     5               35.5365
221262720             14.006201                     5               37.9965
221262720             14.006201                     5               40.4565
221262720             14.006201                     5               42.9165
221262720             14.006201                     5               45.3765
221262720             14.006201                     5               47.8365
221262720             14.719907                     5               34.3065
221262720             14.719907                     5               36.7665
221262720             14.719907                     5               39.2265
221262720             14.719907                     5               41.6865
221262720             14.719907                     5               44.1465
221262720             14.719907                     5               46.6065
221262720             14.719907                     5               49.0665
221262720              16.86137                     5               33.0765
221262720              16.86137                     5               35.5365
221262720              16.86137                     5               37.9965
221262720              16.86137                     5               40.4565
221262720              16.86137                     5               42.9165
221262720              16.86137                     5               45.3765
221262720              16.86137                     5               47.8365
221262720             16.147663                     5               34.3065
221262720             16.147663                     5               36.7665
221262720             16.147663                     5               39.2265
221262720             16.147663                     5               41.6865
221262720             16.147663                     5               44.1465
221262720             16.147663                     5               46.6065
221262720             16.147663                     5               49.0665
221262720              1.157426                     5               33.0765
221262720              1.157426                     5               35.5365
221262720              1.157426                     5               37.9965
221262720              1.157426                     5               40.4565
221262720              1.157426                     5               42.9165
221262720              1.157426                     5               45.3765
221262720              1.157426                     5               47.8365
221262752              1.300989                     5     0.054000000000002
221262752               3.86886                     5     0.054000000000002
221262752              5.586141                     5    0.0549999999999997
221262752              8.151785                     5     0.054000000000002
221262752              9.869066                     5    0.0549999999999997
221262752              12.43471                     5     0.054000000000002
221262752             14.151991                     5    0.0549999999999997
221262752             16.717635                     5     0.054000000000002
221262720             17.091783                     5                8.5655
221262720             17.091783                     5               12.8265
221262720             17.091783                     5               17.0875
221262720             17.091783                     5                21.348
221262720             17.091783                     5                 9.986
221262720             17.091783                     5               14.2465
221262720             17.091783                     5               18.5075
221262720             17.091783                     5               22.7685
221262720             15.868066                     5                10.696
221262720             15.868066                     5                14.957
221262720             15.868066                     5               19.2175
221262720             15.868066                     5               23.4785
221262720             15.868066                     5                7.8555
221262720             15.868066                     5               12.1165
221262720             15.868066                     5                16.377
221262720             15.868066                     5                20.638
221262720             14.644348                     5                8.5655
221262720             14.644348                     5               12.8265
221262720             14.644348                     5               17.0875
221262720             14.644348                     5                21.348
221262720             13.420631                     5                10.696
221262720             13.420631                     5                14.957
221262720             13.420631                     5               19.2175
221262720             13.420631                     5               23.4785
221262720             14.644348                     5                 9.986
221262720             14.644348                     5               14.2465
221262720             14.644348                     5               18.5075
221262720             14.644348                     5               22.7685
221262720             13.420631                     5                7.8555
221262720             13.420631                     5               12.1165
221262720             13.420631                     5                16.377
221262720             13.420631                     5                20.638
221262720             12.197085                     5                8.5655
221262720             12.197085                     5               12.8265
221262720             12.197085                     5               17.0875
221262720             12.197085                     5                21.348
221262720             10.973368                     5                10.696
221262720             10.973368                     5                14.957
221262720             10.973368                     5               19.2175
221262720             10.973368                     5               23.4785
221262720             12.197085                     5                 9.986
221262720             12.197085                     5               14.2465
221262720             12.197085                     5               18.5075
221262720             12.197085                     5               22.7685
221262720             10.973368                     5                7.8555
221262720             10.973368                     5               12.1165
221262720             10.973368                     5                16.377
221262720             10.973368                     5                20.638
221262720               9.74965                     5                8.5655
221262720               9.74965                     5               12.8265
221262720               9.74965                     5               17.0875
221262720               9.74965                     5                21.348
221262720              8.525933                     5                10.696
221262720              8.525933                     5                14.957
221262720              8.525933                     5               19.2175
221262720              8.525933                     5               23.4785
221262720               9.74965                     5                 9.986
221262720               9.74965                     5               14.2465
221262720               9.74965                     5               18.5075
221262720               9.74965                     5               22.7685
221262720              8.525933                     5                7.8555
221262720              8.525933                     5               12.1165
221262720              8.525933                     5                16.377
221262720              8.525933                     5                20.638
221262720              7.302216                     5                8.5655
221262720              7.302216                     5               12.8265
221262720              7.302216                     5               17.0875
221262720              7.302216                     5                21.348
221262720              6.078498                     5                10.696
221262720              6.078498                     5                14.957
221262720              6.078498                     5               19.2175
221262720              6.078498                     5               23.4785
221262720              7.302216                     5                 9.986
221262720              7.302216                     5               14.2465
221262720              7.302216                     5               18.5075
221262720              7.302216                     5               22.7685
221262720              6.078498                     5                7.8555
221262720              6.078498                     5               12.1165
221262720              6.078498                     5                16.377
221262720              6.078498                     5                20.638
221262720              4.854781                     5                8.5655
221262720              4.854781                     5               12.8265
221262720              4.854781                     5               17.0875
221262720              4.854781                     5                21.348
221262720              3.631235                     5                10.696
221262720              3.631235                     5                14.957
221262720              3.631235                     5               19.2175
221262720              3.631235                     5               23.4785
221262720              4.854781                     5                 9.986
221262720              4.854781                     5               14.2465
221262720              4.854781                     5               18.5075
221262720              4.854781                     5               22.7685
221262720              3.631235                     5                7.8555
221262720              3.631235                     5               12.1165
221262720              3.631235                     5                16.377
221262720              3.631235                     5                20.638
221262720              2.407518                     5                8.5655
221262720              2.407518                     5               12.8265
221262720              2.407518                     5               17.0875
221262720              2.407518                     5                21.348
221262720                1.1838                     5                10.696
221262720                1.1838                     5                14.957
221262720                1.1838                     5               19.2175
221262720                1.1838                     5               23.4785
221262720              2.407518                     5                 9.986
221262720              2.407518                     5               14.2465
221262720              2.407518                     5               18.5075
221262720              2.407518                     5               22.7685
221262720                1.1838                     5                7.8555
221262720                1.1838                     5               12.1165
221262720                1.1838                     5                16.377
221262720                1.1838                     5                20.638
221262752             15.865667                     5                6.7155
221262752              13.42303                     5                6.7155
221262752             10.975766                     5                6.7155
221262752              8.528332                     5                6.7155
221262752              6.080897                     5                6.7155
221262752              3.633634                     5                6.7155
221262752              1.181402                     5                6.7155
221262752               1.77901              1.303395             24.860547
221262752              9.177524              7.024589                  23.5
221262752              4.820729              1.229524              25.35078
221262752             11.554041              4.933703             27.144075
221262752             11.328648              0.724575                  23.5
221262752              4.997234               1.17838             27.059345
221262752              2.797111              2.753904                  23.5
221262752              11.51398              7.817454                  23.5
221262752              1.220047              5.297658                  23.5
221262752              2.085496              0.124273             24.861718
221262752              3.592978              2.093211             27.705549
221262752             10.034403              0.558175             25.340782
221262752              0.298299              4.049661             26.275545
221262752             13.686195              0.486822             25.971237
221262752             16.311138              4.039275             28.618277
221262752              2.075899              3.768654             24.287475
221262752             12.940697              6.493989              25.19893
221262752             11.215974              0.540801              27.19913
221262752              2.240001               1.19822             31.284151
221262752             13.261071              7.766965             29.373387
221262752             15.982054               0.98933             30.172446
221262752              8.260286              5.238154             28.594736
221262752             14.458305              3.291746             30.705353
221262752              5.504761              7.648747                    33
221262752              8.286024              3.898972             31.269952
221262752             10.554055              2.888182             29.067133
221262752              6.197778              4.079011             25.892966
221262752             10.881966              6.654675             28.071467
221262720              9.742122              1.505159             24.144384
221262720              9.376442              5.270584             24.683979
221262720               4.01816              7.330503             26.041642
221262720              6.833655              6.256702                  23.5
221262720              8.216997              7.541143             25.769572
221262720              6.272756                2.0291                  23.5
221262720             15.622398              5.166258             24.630505
221262720              1.358768              4.286507             25.277499
221262720             12.927823              5.571847             23.765764
221262720               8.54468              9.104332                  23.5
221262720              3.187463              9.053071             25.120794
221262720              4.291606              1.365539             25.367036
221262720              2.161791              5.041915             27.716313
221262720              7.217848              9.178684             25.817917
221262720             11.592103              1.514831             26.538102
221262720              4.380568              2.165343              26.34194
221262720              8.180446                4.7664             31.576044
221262720              1.826597              6.721442             26.937817
221262720             14.336336              1.060633             26.417104
221262720              6.097661              9.002377             26.132192
221262720             12.714243              8.041488             26.466737
221262720              8.549735              9.384945             28.283421
221262720             14.441743              4.611031             32.802551
221262720              6.819999              8.967943              30.33149
221262720             17.043931              9.993917             32.917434
221262720               1.70047              3.983415             32.099494
221262720              16.59826              1.768933             30.459289
221262720              4.950595              0.275832                    33
221262720              6.462208              5.554026             30.663502
221262720             13.411253              3.875853             32.801375
221262720              1.701229              7.076326             32.715717
221262720             13.662518              6.821378              32.90635
221262720               0.10971               8.88775                    33
300
Atoms. Timestep: 10
221262752      1.86839210091591                     5      34.3115352131694
221262752      1.86839210091591                     5      36.7715352131694
221262752      1.86839210091591                     5      39.2315352131694
221262752      1.86839210091591                     5      41.6915352131694
221262752      1.86839210091591                     5      44.1515352131694
221262752      1.86839210091591                     5      46.6115352131694
221262752      1.86839210091591                     5      49.0715352131694
221262752      4.00985510091592                     5      33.0815352131694
221262752      4.00985510091592                     5      35.5415352131694
221262752      4.00985510091592                     5      38.0015352131694
221262752      4.00985510091592                     5      40.4615352131694
221262752      4.00985510091592                     5      42.9215352131694
221262752      4.00985510091592                     5      45.3815352131694
221262752      4.00985510091592                     5      47.8415352131694
221262752      3.29614810091591                     5      34.3115352131694
221262752      3.29614810091591                     5      36.7715352131694
221262752      3.29614810091591                     5      39.2315352131694
221262752      3.29614810091591                     5      41.6915352131694
221262752      3.29614810091591                     5      44.1515352131694
221262752      3.29614810091591                     5      46.6115352131694
221262752      3.29614810091591                     5      49.0715352131694
221262752      5.43761110091592                     5      33.0815352131694
221262752      5.43761110091592                     5      35.5415352131694
221262752      5.43761110091592                     5      38.0015352131694
221262752      5.43761110091592                     5      40.4615352131694
221262752      5.43761110091592                     5      42.9215352131694
221262752      5.43761110091592                     5      45.3815352131694
221262752      5.43761110091592                     5      47.8415352131694
221262752      6.15131710091592                     5      34.3115352131694
221262752      6.15131710091592                     5      36.7715352131694
221262720      6.15131710091592                     5      39.2315352131694
221262720      6.15131710091592                     5      41.6915352131694
221262720      6.15131710091592                     5      44.1515352131694
221262720      6.15131710091592                     5      46.6115352131694
221262720      6.15131710091592                     5      49.0715352131694
221262720      8.29278010091591                     5      33.0815352131694
221262720      8.29278010091591                     5      35.5415352131694
221262720      8.29278010091591                     5      38.0015352131694
221262720      8.29278010091591                     5      40.4615352131694
221262720      8.29278010091591                     5      42.9215352131694
221262720      8.29278010091591                     5      45.3815352131694
221262720      8.29278010091591                     5      47.8415352131694
221262720      7.57907310091592                     5      34.3115352131694
221262720      7.57907310091592                     5      36.7715352131694
221262720      7.57907310091592                     5      39.2315352131694
221262720      7.57907310091592                     5      41.6915352131694
221262720      7.57907310091592                     5      44.1515352131694
221262720      7.57907310091592                     5      46.6115352131694
221262720      7.57907310091592                     5      49.0715352131694
221262720      9.72053610091591                     5      33.0815352131694
221262720      9.72053610091591                     5      35.5415352131694
221262720      9.72053610091591                     5      38.0015352131694
221262720      9.72053610091591                     5      40.4615352131694
221262720      9.72053610091591                     5      42.9215352131694
221262720      9.72053610091591                     5      45.3815352131694
221262720      9.72053610091591                     5      47.8415352131694
221262720      10.4342421009159                     5      34.3115352131694
221262720      10.4342421009159                     5      36.7715352131694
221262720      10.4342421009159                     5      39.2315352131694
221262720      10.4342421009159                     5      41.6915352131694
221262720      10.4342421009159                     5      44.1515352131694
221262720      10.4342421009159                     5      46.6115352131694
221262720      10.4342421009159                     5      49.0715352131694
221262720      12.5757051009159                     5      33.0815352131694
221262720      12.5757051009159                     5      35.5415352131694
221262720      12.5757051009159                     5      38.0015352131694
221262720      12.5757051009159                     5      40.4615352131694
221262720      12.5757051009159                     5      42.9215352131694
221262720      12.5757051009159                     5      45.3815352131694
221262720      12.5757051009159                     5      47.8415352131694
221262720      11.8619981009159                     5      34.3115352131694
221262720      11.8619981009159                     5      36.7715352131694
221262720      11.8619981009159                     5      39.2315352131694
221262720      11.8619981009159                     5      41.6915352131694
221262720      11.8619981009159                     5      44.1515352131694
221262720      11.8619981009159                     5      46.6115352131694
221262720      11.8619981009159                     5      49.0715352131694
221262720      14.0034611009159                     5      33.0815352131694
221262720      14.0034611009159                     5      35.5415352131694
221262720      14.0034611009159                     5      38.0015352131694
221262720      14.0034611009159                     5      40.4615352131694
221262720      14.0034611009159                     5      42.9215352131694
221262720      14.0034611009159                     5      45.3815352131694
221262720      14.0034611009159                     5      47.8415352131694
221262720      14.7171671009159                     5      34.3115352131694
221262720      14.7171671009159                     5      36.7715352131694
221262720      14.7171671009159                     5      39.2315352131694
221262720      14.7171671009159                     5      41.6915352131694
221262720      14.7171671009159                     5      44.1515352131694
221262720      14.7171671009159                     5      46.6115352131694
221262720      14.7171671009159                     5      49.0715352131694
221262720      16.8586301009159                     5      33.0815352131694
221262720      16.8586301009159                     5      35.5415352131694
221262720      16.8586301009159                     5      38.0015352131694