search structure

300 atoms
2  atom types

0   17.131700 xlo xhi
0   10.000000 ylo yhi
0   50.000000 zlo zhi

Atoms

1 2 1.871132 5.000000 34.306500
2 2 1.871132 5.000000 36.766500
3 2 1.871132 5.000000 39.226500
4 2 1.871132 5.000000 41.686500
5 2 1.871132 5.000000 44.146500
6 2 1.871132 5.000000 46.606500
7 2 1.871132 5.000000 49.066500
8 2 4.012595 5.000000 33.076500
9 2 4.012595 5.000000 35.536500
10 2 4.012595 5.000000 37.996500
11 2 4.012595 5.000000 40.456500
12 2 4.012595 5.000000 42.916500
13 2 4.012595 5.000000 45.376500
14 2 4.012595 5.000000 47.836500
15 2 3.298888 5.000000 34.306500
16 2 3.298888 5.000000 36.766500
17 2 3.298888 5.000000 39.226500
18 2 3.298888 5.000000 41.686500
19 2 3.298888 5.000000 44.146500
20 2 3.298888 5.000000 46.606500
21 2 3.298888 5.000000 49.066500
22 2 5.440351 5.000000 33.076500
23 2 5.440351 5.000000 35.536500
24 2 5.440351 5.000000 37.996500
25 2 5.440351 5.000000 40.456500
26 2 5.440351 5.000000 42.916500
27 2 5.440351 5.000000 45.376500
28 2 5.440351 5.000000 47.836500
29 2 6.154057 5.000000 34.306500
30 2 6.154057 5.000000 36.766500
31 1 6.154057 5.000000 39.226500
32 1 6.154057 5.000000 41.686500
33 1 6.154057 5.000000 44.146500
34 1 6.154057 5.000000 46.606500
35 1 6.154057 5.000000 49.066500
36 1 8.295520 5.000000 33.076500
37 1 8.295520 5.000000 35.536500
38 1 8.295520 5.000000 37.996500
39 1 8.295520 5.000000 40.456500
40 1 8.295520 5.000000 42.916500
41 1 8.295520 5.000000 45.376500
42 1 8.295520 5.000000 47.836500
43 1 7.581813 5.000000 34.306500
44 1 7.581813 5.000000 36.766500
45 1 7.581813 5.000000 39.226500
46 1 7.581813 5.000000 41.686500
47 1 7.581813 5.000000 44.146500
48 1 7.581813 5.000000 46.606500
49 1 7.581813 5.000000 49.066500
50 1 9.723276 5.000000 33.076500
51 1 9.723276 5.000000 35.536500
52 1 9.723276 5.000000 37.996500
53 1 9.723276 5.000000 40.456500
54 1 9.723276 5.000000 42.916500
55 1 9.723276 5.000000 45.376500
56 1 9.723276 5.000000 47.836500
57 1 10.436982 5.000000 34.306500
58 1 10.436982 5.000000 36.766500
59 1 10.436982 5.000000 39.226500
60 1 10.436982 5.000000 41.686500
61 1 10.436982 5.000000 44.146500
62 1 10.436982 5.000000 46.606500
63 1 10.436982 5.000000 49.066500
64 1 12.578445 5.000000 33.076500
65 1 12.578445 5.000000 35.536500
66 1 12.578445 5.000000 37.996500
67 1 12.578445 5.000000 40.456500
68 1 12.578445 5.000000 42.916500
69 1 12.578445 5.000000 45.376500
70 1 12.578445 5.000000 47.836500
71 1 11.864738 5.000000 34.306500
72 1 11.864738 5.000000 36.766500
73 1 11.864738 5.000000 39.226500
74 1 11.864738 5.000000 41.686500
75 1 11.864738 5.000000 44.146500
76 1 11.864738 5.000000 46.606500
77 1 11.864738 5.000000 49.066500
78 1 14.006201 5.000000 33.076500
79 1 14.006201 5.000000 35.536500
80 1 14.006201 5.000000 37.996500
81 1 14.006201 5.000000 40.456500
82 1 14.006201 5.000000 42.916500
83 1 14.006201 5.000000 45.376500
84 1 14.006201 5.000000 47.836500
85 1 14.719907 5.000000 34.306500
86 1 14.719907 5.000000 36.766500
87 1 14.719907 5.000000 39.226500
88 1 14.719907 5.000000 41.686500
89 1 14.719907 5.000000 44.146500
90 1 14.719907 5.000000 46.606500
91 1 14.719907 5.000000 49.066500
92 1 16.861370 5.000000 33.076500
93 1 16.861370 5.000000 35.536500
94 1 16.861370 5.000000 37.996500
95 1 16.861370 5.000000 40.456500
96 1 16.861370 5.000000 42.916500
97 1 16.861370 5.000000 45.376500
98 1 16.861370 5.000000 47.836500
99 1 16.147663 5.000000 34.306500
100 1 16.147663 5.000000 36.766500
101 1 16.147663 5.000000 39.226500
102 1 16.147663 5.000000 41.686500
103 1 16.147663 5.000000 44.146500
104 1 16.147663 5.000000 46.606500
105 1 16.147663 5.000000 49.066500
106 1 1.157426 5.000000 33.076500
107 1 1.157426 5.000000 35.536500
108 1 1.157426 5.000000 37.996500
109 1 1.157426 5.000000 40.456500
110 1 1.157426 5.000000 42.916500
111 1 1.157426 5.000000 45.376500
112 1 1.157426 5.000000 47.836500
113 2 1.300989 5.000000 50.054000
114 2 3.868860 5.000000 50.054000
115 2 5.586141 5.000000 50.055000
116 2 8.151785 5.000000 50.054000
117 2 9.869066 5.000000 50.055000
118 2 12.434710 5.000000 50.054000
119 2 14.151991 5.000000 50.055000
120 2 16.717635 5.000000 50.054000
121 1 -0.039917 5.000000 8.565500
122 1 -0.039917 5.000000 12.826500
123 1 -0.039917 5.000000 17.087500
124 1 -0.039917 5.000000 21.348000
125 1 -0.039917 5.000000 9.986000
126 1 -0.039917 5.000000 14.246500
127 1 -0.039917 5.000000 18.507500
128 1 -0.039917 5.000000 22.768500
129 1 15.868066 5.000000 10.696000
130 1 15.868066 5.000000 14.957000
131 1 15.868066 5.000000 19.217500
132 1 15.868066 5.000000 23.478500
133 1 15.868066 5.000000 7.855500
134 1 15.868066 5.000000 12.116500
135 1 15.868066 5.000000 16.377000
136 1 15.868066 5.000000 20.638000
137 1 14.644348 5.000000 8.565500
138 1 14.644348 5.000000 12.826500
139 1 14.644348 5.000000 17.087500
140 1 14.644348 5.000000 21.348000
141 1 13.420631 5.000000 10.696000
142 1 13.420631 5.000000 14.957000
143 1 13.420631 5.000000 19.217500
144 1 13.420631 5.000000 23.478500
145 1 14.644348 5.000000 9.986000
146 1 14.644348 5.000000 14.246500
147 1 14.644348 5.000000 18.507500
148 1 14.644348 5.000000 22.768500
149 1 13.420631 5.000000 7.855500
150 1 13.420631 5.000000 12.116500
151 1 13.420631 5.000000 16.377000
152 1 13.420631 5.000000 20.638000
153 1 12.197085 5.000000 8.565500
154 1 12.197085 5.000000 12.826500
155 1 12.197085 5.000000 17.087500
156 1 12.197085 5.000000 21.348000
157 1 10.973368 5.000000 10.696000
158 1 10.973368 5.000000 14.957000
159 1 10.973368 5.000000 19.217500
160 1 10.973368 5.000000 23.478500
161 1 12.197085 5.000000 9.986000
162 1 12.197085 5.000000 14.246500
163 1 12.197085 5.000000 18.507500
164 1 12.197085 5.000000 22.768500
165 1 10.973368 5.000000 7.855500
166 1 10.973368 5.000000 12.116500
167 1 10.973368 5.000000 16.377000
168 1 10.973368 5.000000 20.638000
169 1 9.749650 5.000000 8.565500
170 1 9.749650 5.000000 12.826500
171 1 9.749650 5.000000 17.087500
172 1 9.749650 5.000000 21.348000
173 1 8.525933 5.000000 10.696000
174 1 8.525933 5.000000 14.957000
175 1 8.525933 5.000000 19.217500
176 1 8.525933 5.000000 23.478500
177 1 9.749650 5.000000 9.986000
178 1 9.749650 5.000000 14.246500
179 1 9.749650 5.000000 18.507500
180 1 9.749650 5.000000 22.768500
181 1 8.525933 5.000000 7.855500
182 1 8.525933 5.000000 12.116500
183 1 8.525933 5.000000 16.377000
184 1 8.525933 5.000000 20.638000
185 1 7.302216 5.000000 8.565500
186 1 7.302216 5.000000 12.826500
187 1 7.302216 5.000000 17.087500
188 1 7.302216 5.000000 21.348000
189 1 6.078498 5.000000 10.696000
190 1 6.078498 5.000000 14.957000
191 1 6.078498 5.000000 19.217500
192 1 6.078498 5.000000 23.478500
193 1 7.302216 5.000000 9.986000
194 1 7.302216 5.000000 14.246500
195 1 7.302216 5.000000 18.507500
196 1 7.302216 5.000000 22.768500
197 1 6.078498 5.000000 7.855500
198 1 6.078498 5.000000 12.116500
199 1 6.078498 5.000000 16.377000
200 1 6.078498 5.000000 20.638000
201 1 4.854781 5.000000 8.565500
202 1 4.854781 5.000000 12.826500
203 1 4.854781 5.000000 17.087500
204 1 4.854781 5.000000 21.348000
205 1 3.631235 5.000000 10.696000
206 1 3.631235 5.000000 14.957000
207 1 3.631235 5.000000 19.217500
208 1 3.631235 5.000000 23.478500
209 1 4.854781 5.000000 9.986000
210 1 4.854781 5.000000 14.246500
211 1 4.854781 5.000000 18.507500
212 1 4.854781 5.000000 22.768500
213 1 3.631235 5.000000 7.855500
214 1 3.631235 5.000000 12.116500
215 1 3.631235 5.000000 16.377000
216 1 3.631235 5.000000 20.638000
217 1 2.407518 5.000000 8.565500
218 1 2.407518 5.000000 12.826500
219 1 2.407518 5.000000 17.087500
220 1 2.407518 5.000000 21.348000
221 1 1.183800 5.000000 10.696000
222 1 1.183800 5.000000 14.957000
223 1 1.183800 5.000000 19.217500
224 1 1.183800 5.000000 23.478500
225 1 2.407518 5.000000 9.986000
226 1 2.407518 5.000000 14.246500
227 1 2.407518 5.000000 18.507500
228 1 2.407518 5.000000 22.768500
229 1 1.183800 5.000000 7.855500
230 1 1.183800 5.000000 12.116500
231 1 1.183800 5.000000 16.377000
232 1 1.183800 5.000000 20.638000
233 2 15.865667 5.000000 6.715500
234 2 13.423030 5.000000 6.715500
235 2 10.975766 5.000000 6.715500
236 2 8.528332 5.000000 6.715500
237 2 6.080897 5.000000 6.715500
238 2 3.633634 5.000000 6.715500
239 2 1.181402 5.000000 6.715500
240 2 1.779010 1.303395 24.860547
241 2 9.177524 7.024589 23.500000
242 2 4.820729 1.229524 25.350780
243 2 11.554041 4.933703 27.144075
244 2 11.328648 0.724575 23.500000
245 2 4.997234 1.178380 27.059345
246 2 2.797111 2.753904 23.500000
247 2 11.513980 7.817454 23.500000
248 2 1.220047 5.297658 23.500000
249 2 2.085496 0.124273 24.861718
250 2 3.592978 2.093211 27.705549
251 2 10.034403 0.558175 25.340782
252 2 0.298299 4.049661 26.275545
253 2 13.686195 0.486822 25.971237
254 2 16.311138 4.039275 28.618277
255 2 2.075899 3.768654 24.287475
256 2 12.940697 6.493989 25.198930
257 2 11.215974 0.540801 27.199130
258 2 2.240001 1.198220 31.284151
259 2 13.261071 7.766965 29.373387
260 2 15.982054 0.989330 30.172446
261 2 8.260286 5.238154 28.594736
262 2 14.458305 3.291746 30.705353
263 2 5.504761 7.648747 33.000000
264 2 8.286024 3.898972 31.269952
265 2 10.554055 2.888182 29.067133
266 2 6.197778 4.079011 25.892966
267 2 10.881966 6.654675 28.071467
268 1 9.742122 1.505159 24.144384
269 1 9.376442 5.270584 24.683979
270 1 4.018160 7.330503 26.041642
271 1 6.833655 6.256702 23.500000
272 1 8.216997 7.541143 25.769572
273 1 6.272756 2.029100 23.500000
274 1 15.622398 5.166258 24.630505
275 1 1.358768 4.286507 25.277499
276 1 12.927823 5.571847 23.765764
277 1 8.544680 9.104332 23.500000
278 1 3.187463 9.053071 25.120794
279 1 4.291606 1.365539 25.367036
280 1 2.161791 5.041915 27.716313
281 1 7.217848 9.178684 25.817917
282 1 11.592103 1.514831 26.538102
283 1 4.380568 2.165343 26.341940
284 1 8.180446 4.766400 31.576044
285 1 1.826597 6.721442 26.937817
286 1 14.336336 1.060633 26.417104
287 1 6.097661 9.002377 26.132192
288 1 12.714243 8.041488 26.466737
289 1 8.549735 9.384945 28.283421
290 1 14.441743 4.611031 32.802551
291 1 6.819999 8.967943 30.331490
292 1 17.043931 9.993917 32.917434
293 1 1.700470 3.983415 32.099494
294 1 16.598260 1.768933 30.459289
295 1 4.950595 0.275832 33.000000
296 1 6.462208 5.554026 30.663502
297 1 13.411253 3.875853 32.801375
298 1 1.701229 7.076326 32.715717
299 1 13.662518 6.821378 32.906350
300 1 0.109710 8.887750 33.000000
