300
Atoms. Timestep: 0
312312736              2.315079                     5               34.3065
312312736              2.315079                     5               36.7665
312312736              2.315079                     5               39.2265
312312736              2.315079                     5               41.6865
312312736              2.315079                     5               44.1465
312312736              2.315079                     5               46.6065
312312736              2.315079                     5               49.0665
312312736              4.456542                     5               33.0765
312312736              4.456542                     5               35.5365
312312736              4.456542                     5               37.9965
312312736              4.456542                     5               40.4565
312312736              4.456542                     5               42.9165
312312736              4.456542                     5               45.3765
312312736              4.456542                     5               47.8365
312312736              3.742835                     5               34.3065
312312736              3.742835                     5               36.7665
312312736              3.742835                     5               39.2265
312312736              3.742835                     5               41.6865
312312736              3.742835                     5               44.1465
312312736              3.742835                     5               46.6065
312312736              3.742835                     5               49.0665
312312736              5.884298                     5               33.0765
312312736              5.884298                     5               35.5365
312312736              5.884298                     5               37.9965
312312736              5.884298                     5               40.4565
312312736              5.884298                     5               42.9165
312312736              5.884298                     5               45.3765
312312736              5.884298                     5               47.8365
312312736              6.598004                     5               34.3065
312312736              6.598004                     5               36.7665
312312704              6.598004                     5               39.2265
312312704              6.598004                     5               41.6865
312312704              6.598004                     5               44.1465
312312704              6.598004                     5               46.6065
312312704              6.598004                     5               49.0665
312312704              8.739467                     5               33.0765
312312704              8.739467                     5               35.5365
312312704              8.739467                     5               37.9965
312312704              8.739467                     5               40.4565
312312704              8.739467                     5               42.9165
312312704              8.739467                     5               45.3765
312312704              8.739467                     5               47.8365
312312704               8.02576                     5               34.3065
312312704               8.02576                     5               36.7665
312312704               8.02576                     5               39.2265
312312704               8.02576                     5               41.6865
312312704               8.02576                     5               44.1465
312312704               8.02576                     5               46.6065
312312704               8.02576                     5               49.0665
312312704             10.167223                     5               33.0765
312312704             10.167223                     5               35.5365
312312704             10.167223                     5               37.9965
312312704             10.167223                     5               40.4565
312312704             10.167223                     5               42.9165
312312704             10.167223                     5               45.3765
312312704             10.167223                     5               47.8365
312312704             10.880929                     5               34.3065
312312704             10.880929                     5               36.7665
312312704             10.880929                     5               39.2265
312312704             10.880929                     5               41.6865
312312704             10.880929                     5               44.1465
312312704             10.880929                     5               46.6065
312312704             10.880929                     5               49.0665
312312704             13.022392                     5               33.0765
312312704             13.022392                     5               35.5365
312312704             13.022392                     5               37.9965
312312704             13.022392                     5               40.4565
312312704             13.022392                     5               42.9165
312312704             13.022392                     5               45.3765
312312704             13.022392                     5               47.8365
312312704             12.308685                     5               34.3065
312312704             12.308685                     5               36.7665
312312704             12.308685                     5               39.2265
312312704             12.308685                     5               41.6865
312312704             12.308685                     5               44.1465
312312704             12.308685                     5               46.6065
312312704             12.308685                     5               49.0665
312312704             14.450148                     5               33.0765
312312704             14.450148                     5               35.5365
312312704             14.450148                     5               37.9965
312312704             14.450148                     5               40.4565
312312704             14.450148                     5               42.9165
312312704             14.450148                     5               45.3765
312312704             14.450148                     5               47.8365
312312704             15.163854                     5               34.3065
312312704             15.163854                     5               36.7665
312312704             15.163854                     5               39.2265
312312704             15.163854                     5               41.6865
312312704             15.163854                     5               44.1465
312312704             15.163854                     5               46.6065
312312704             15.163854                     5               49.0665
312312704              0.173617                     5               33.0765
312312704              0.173617                     5               35.5365
312312704              0.173617                     5               37.9965
312312704              0.173617                     5               40.4565
312312704              0.173617                     5               42.9165
312312704              0.173617                     5               45.3765
312312704              0.173617                     5               47.8365
312312704              16.59161                     5               34.3065
312312704              16.59161                     5               36.7665
312312704              16.59161                     5               39.2265
312312704              16.59161                     5               41.6865
312312704              16.59161                     5               44.1465
312312704              16.59161                     5               46.6065
312312704              16.59161                     5               49.0665
312312704              1.601373                     5               33.0765
312312704              1.601373                     5               35.5365
312312704              1.601373                     5               37.9965
312312704              1.601373                     5               40.4565
312312704              1.601373                     5               42.9165
312312704              1.601373                     5               45.3765
312312704              1.601373                     5               47.8365
312312736              1.744936                     5     0.054000000000002
312312736              4.312807                     5     0.054000000000002
312312736              6.030089                     5    0.0549999999999997
312312736              8.595732                     5     0.054000000000002
312312736             10.313014                     5    0.0549999999999997
312312736             12.878657                     5     0.054000000000002
312312736             14.595939                     5    0.0549999999999997
312312736              0.029882                     5     0.054000000000002
312312704             17.091783                     5                8.5655
312312704             17.091783                     5               12.8265
312312704             17.091783                     5               17.0875
312312704             17.091783                     5                21.348
312312704             17.091783                     5                 9.986
312312704             17.091783                     5               14.2465
312312704             17.091783                     5               18.5075
312312704             17.091783                     5               22.7685
312312704             15.868066                     5                10.696
312312704             15.868066                     5                14.957
312312704             15.868066                     5               19.2175
312312704             15.868066                     5               23.4785
312312704             15.868066                     5                7.8555
312312704             15.868066                     5               12.1165
312312704             15.868066                     5                16.377
312312704             15.868066                     5                20.638
312312704             14.644348                     5                8.5655
312312704             14.644348                     5               12.8265
312312704             14.644348                     5               17.0875
312312704             14.644348                     5                21.348
312312704             13.420631                     5                10.696
312312704             13.420631                     5                14.957
312312704             13.420631                     5               19.2175
312312704             13.420631                     5               23.4785
312312704             14.644348                     5                 9.986
312312704             14.644348                     5               14.2465
312312704             14.644348                     5               18.5075
312312704             14.644348                     5               22.7685
312312704             13.420631                     5                7.8555
312312704             13.420631                     5               12.1165
312312704             13.420631                     5                16.377
312312704             13.420631                     5                20.638
312312704             12.197085                     5                8.5655
312312704             12.197085                     5               12.8265
312312704             12.197085                     5               17.0875
312312704             12.197085                     5                21.348
312312704             10.973368                     5                10.696
312312704             10.973368                     5                14.957
312312704             10.973368                     5               19.2175
312312704             10.973368                     5               23.4785
312312704             12.197085                     5                 9.986
312312704             12.197085                     5               14.2465
312312704             12.197085                     5               18.5075
312312704             12.197085                     5               22.7685
312312704             10.973368                     5                7.8555
312312704             10.973368                     5               12.1165
312312704             10.973368                     5                16.377
312312704             10.973368                     5                20.638
312312704               9.74965                     5                8.5655
312312704               9.74965                     5               12.8265
312312704               9.74965                     5               17.0875
312312704               9.74965                     5                21.348
312312704              8.525933                     5                10.696
312312704              8.525933                     5                14.957
312312704              8.525933                     5               19.2175
312312704              8.525933                     5               23.4785
312312704               9.74965                     5                 9.986
312312704               9.74965                     5               14.2465
312312704               9.74965                     5               18.5075
312312704               9.74965                     5               22.7685
312312704              8.525933                     5                7.8555
312312704              8.525933                     5               12.1165
312312704              8.525933                     5                16.377
312312704              8.525933                     5                20.638
312312704              7.302216                     5                8.5655
312312704              7.302216                     5               12.8265
312312704              7.302216                     5               17.0875
312312704              7.302216                     5                21.348
312312704              6.078498                     5                10.696
312312704              6.078498                     5                14.957
312312704              6.078498                     5               19.2175
312312704              6.078498                     5               23.4785
312312704              7.302216                     5                 9.986
312312704              7.302216                     5               14.2465
312312704              7.302216                     5               18.5075
312312704              7.302216                     5               22.7685
312312704              6.078498                     5                7.8555
312312704              6.078498                     5               12.1165
312312704              6.078498                     5                16.377
312312704              6.078498                     5                20.638
312312704              4.854781                     5                8.5655
312312704              4.854781                     5               12.8265
312312704              4.854781                     5               17.0875
312312704              4.854781                     5                21.348
312312704              3.631235                     5                10.696
312312704              3.631235                     5                14.957
312312704              3.631235                     5               19.2175
312312704              3.631235                     5               23.4785
312312704              4.854781                     5                 9.986
312312704              4.854781                     5               14.2465
312312704              4.854781                     5               18.5075
312312704              4.854781                     5               22.7685
312312704              3.631235                     5                7.8555
312312704              3.631235                     5               12.1165
312312704              3.631235                     5                16.377
312312704              3.631235                     5                20.638
312312704              2.407518                     5                8.5655
312312704              2.407518                     5               12.8265
312312704              2.407518                     5               17.0875
312312704              2.407518                     5                21.348
312312704                1.1838                     5                10.696
312312704                1.1838                     5                14.957
312312704                1.1838                     5               19.2175
312312704                1.1838                     5               23.4785
312312704              2.407518                     5                 9.986
312312704              2.407518                     5               14.2465
312312704              2.407518                     5               18.5075
312312704              2.407518                     5               22.7685
312312704                1.1838                     5                7.8555
312312704                1.1838                     5               12.1165
312312704                1.1838                     5                16.377
312312704                1.1838                     5                20.638
312312736             15.865667                     5                6.7155
312312736              13.42303                     5                6.7155
312312736             10.975766                     5                6.7155
312312736              8.528332                     5                6.7155
312312736              6.080897                     5                6.7155
312312736              3.633634                     5                6.7155
312312736              1.181402                     5                6.7155
312312736              6.596578              2.779432             26.030066
312312736              2.610056              2.228393             25.810812
312312736             13.313702              0.073117             24.406384
312312736              3.733877              0.980058             27.328784
312312736              6.941636              6.745201             24.796556
312312736              12.63075              6.482648             24.392866
312312736              0.377869              9.956855             26.144047
312312736             15.841548              9.857134             25.823247
312312736              9.966472              2.892662             26.404031
312312736              4.259869              5.425327             30.571517
312312736              7.787849               2.35721             30.914755
312312736              2.060031              4.955336             30.002801
312312736              4.953073              7.483839             30.463529
312312736             15.056922              1.602643             29.046619
312312736             14.968259              5.004033             30.433461
312312736             12.601367              5.033736             31.138725
312312736              4.699214              2.961089             31.046645
312312736              9.112739              8.217035              30.77001
312312736              5.901968              3.391128                    33
312312736              6.080402              1.270186              32.23304
312312736              2.266141              2.646683                    33
312312736             15.463124              4.804861             32.155918
312312736              8.021996              1.901417                    33
312312736              3.045869              2.916048             32.242421
312312736             13.195513              6.668128                    33
312312736             15.052381              9.294502             31.695768
312312736              7.459665              8.849119             30.634009
312312736              4.059035              6.164554                    33
312312704              1.567511              9.841869             26.585526
312312704               5.70245                1.6055             24.718164
312312704              0.188702              1.235656             24.679056
312312704              7.444533              4.209835             25.458825
312312704              2.241352              8.148706             26.675834
312312704             12.050488              1.973516             26.137216
312312704              3.701921              3.416562             25.114522
312312704             16.332625              3.715426                  23.5
312312704             13.151647              9.278444             25.433557
312312704             12.236434               1.10773                  23.5
312312704              11.02328              8.918955                  23.5
312312704              4.180516              4.961185             27.910338
312312704              3.615368              5.305661                  23.5
312312704             12.114115              5.580246             25.101434
312312704               4.72278              1.178239             25.381331
312312704              3.096931              7.891418             27.824567
312312704             10.721327               5.72029             24.039209
312312704              4.551975              6.966358              26.07924
312312704             10.634891              6.057378             28.572235
312312704             15.526691              6.063804             27.702388
312312704              6.870122              8.273023              26.96824
312312704             12.685507              6.590338             24.762635
312312704             13.535368              2.319206                    33
312312704              6.455412              2.184434             29.514166
312312704              2.397189              2.080781             31.394622
312312704              0.435503              4.415497             31.721724
312312704             11.850978              8.621043             32.910098
312312704               1.13514              3.032389             28.681223
312312704             14.406265              1.326809             32.991177
312312704              3.687899              2.799579             32.088273
312312704             13.664457              7.209265             30.617941
312312704              2.342334               7.20157             29.883819
312312704             12.478765               8.48333             31.219816
300
Atoms. Timestep: 10
312312736      2.31506619144053                     5      34.3062856919966
312312736      2.31506619144053                     5      36.7662856919966
312312736      2.31506619144053                     5      39.2262856919966
312312736      2.31506619144053                     5      41.6862856919966
312312736      2.31506619144053                     5      44.1462856919966
312312736      2.31506619144053                     5      46.6062856919966
312312736      2.31506619144053                     5      49.0662856919966
312312736      4.45652919144053                     5      33.0762856919966
312312736      4.45652919144053                     5      35.5362856919966
312312736      4.45652919144053                     5      37.9962856919966
312312736      4.45652919144053                     5      40.4562856919966
312312736      4.45652919144053                     5      42.9162856919966
312312736      4.45652919144053                     5      45.3762856919966
312312736      4.45652919144053                     5      47.8362856919966
312312736      3.74282219144053                     5      34.3062856919966
312312736      3.74282219144053                     5      36.7662856919966
312312736      3.74282219144053                     5      39.2262856919966
312312736      3.74282219144053                     5      41.6862856919966
312312736      3.74282219144053                     5      44.1462856919966
312312736      3.74282219144053                     5      46.6062856919966
312312736      3.74282219144053                     5      49.0662856919966
312312736      5.88428519144053                     5      33.0762856919966
312312736      5.88428519144053                     5      35.5362856919966
312312736      5.88428519144053                     5      37.9962856919966
312312736      5.88428519144053                     5      40.4562856919966
312312736      5.88428519144053                     5      42.9162856919966
312312736      5.88428519144053                     5      45.3762856919966
312312736      5.88428519144053                     5      47.8362856919966
312312736      6.59799119144053                     5      34.3062856919966
312312736      6.59799119144053                     5      36.7662856919966
312312704      6.59799119144053                     5      39.2262856919966
312312704      6.59799119144053                     5      41.6862856919966
312312704      6.59799119144053                     5      44.1462856919966
312312704      6.59799119144053                     5      46.6062856919966
312312704      6.59799119144053                     5      49.0662856919966
312312704      8.73945419144053                     5      33.0762856919966
312312704      8.73945419144053                     5      35.5362856919966
312312704      8.73945419144053                     5      37.9962856919966
312312704      8.73945419144053                     5      40.4562856919966
312312704      8.73945419144053                     5      42.9162856919966
312312704      8.73945419144053                     5      45.3762856919966
312312704      8.73945419144053                     5      47.8362856919966
312312704      8.02574719144053                     5      34.3062856919966
312312704      8.02574719144053                     5      36.7662856919966
312312704      8.02574719144053                     5      39.2262856919966
312312704      8.02574719144053                     5      41.6862856919966
312312704      8.02574719144053                     5      44.1462856919966
312312704      8.02574719144053                     5      46.6062856919966
312312704      8.02574719144053                     5      49.0662856919966
312312704      10.1672101914405                     5      33.0762856919966
312312704      10.1672101914405                     5      35.5362856919966
312312704      10.1672101914405                     5      37.9962856919966
312312704      10.1672101914405                     5      40.4562856919966
312312704      10.1672101914405                     5      42.9162856919966
312312704      10.1672101914405                     5      45.3762856919966
312312704      10.1672101914405                     5      47.8362856919966
312312704      10.8809161914405                     5      34.3062856919966
312312704      10.8809161914405                     5      36.7662856919966
312312704      10.8809161914405                     5      39.2262856919966
312312704      10.8809161914405                     5      41.6862856919966
312312704      10.8809161914405                     5      44.1462856919966
312312704      10.8809161914405                     5      46.6062856919966
312312704      10.8809161914405                     5      49.0662856919966
312312704      13.0223791914405                     5      33.0762856919966
312312704      13.0223791914405                     5      35.5362856919966
312312704      13.0223791914405                     5      37.9962856919966
312312704      13.0223791914405                     5      40.4562856919966
312312704      13.0223791914405                     5      42.9162856919966
312312704      13.0223791914405                     5      45.3762856919966
312312704      13.0223791914405                     5      47.8362856919966
312312704      12.3086721914405                     5      34.3062856919966
312312704      12.3086721914405                     5      36.7662856919966
312312704      12.3086721914405                     5      39.2262856919966
312312704      12.3086721914405                     5      41.6862856919966
312312704      12.3086721914405                     5      44.1462856919966
312312704      12.3086721914405                     5      46.6062856919966
312312704      12.3086721914405                     5      49.0662856919966
312312704      14.4501351914405                     5      33.0762856919966
312312704      14.4501351914405                     5      35.5362856919966
312312704      14.4501351914405                     5      37.9962856919966
312312704      14.4501351914405                     5      40.4562856919966
312312704      14.4501351914405                     5      42.9162856919966
312312704      14.4501351914405                     5      45.3762856919966
312312704      14.4501351914405                     5      47.8362856919966
312312704      15.1638411914405                     5      34.3062856919966
312312704      15.1638411914405                     5      36.7662856919966
312312704      15.1638411914405                     5      39.2262856919966
312312704      15.1638411914405                     5      41.6862856919966
312312704      15.1638411914405                     5      44.1462856919966
312312704      15.1638411914405                     5      46.6062856919966
312312704      15.1638411914405                     5      49.0662856919966
312312704     0.173604191440535                     5      33.0762856919966
312312704     0.173604191440535                     5      35.5362856919966
312312704     0.173604191440535                     5      37.9962856919966