search structure

300 atoms
2  atom types

0   17.131700 xlo xhi
0   10.000000 ylo yhi
0   50.000000 zlo zhi

Atoms

1 2 2.315079 5.000000 34.306500
2 2 2.315079 5.000000 36.766500
3 2 2.315079 5.000000 39.226500
4 2 2.315079 5.000000 41.686500
5 2 2.315079 5.000000 44.146500
6 2 2.315079 5.000000 46.606500
7 2 2.315079 5.000000 49.066500
8 2 4.456542 5.000000 33.076500
9 2 4.456542 5.000000 35.536500
10 2 4.456542 5.000000 37.996500
11 2 4.456542 5.000000 40.456500
12 2 4.456542 5.000000 42.916500
13 2 4.456542 5.000000 45.376500
14 2 4.456542 5.000000 47.836500
15 2 3.742835 5.000000 34.306500
16 2 3.742835 5.000000 36.766500
17 2 3.742835 5.000000 39.226500
18 2 3.742835 5.000000 41.686500
19 2 3.742835 5.000000 44.146500
20 2 3.742835 5.000000 46.606500
21 2 3.742835 5.000000 49.066500
22 2 5.884298 5.000000 33.076500
23 2 5.884298 5.000000 35.536500
24 2 5.884298 5.000000 37.996500
25 2 5.884298 5.000000 40.456500
26 2 5.884298 5.000000 42.916500
27 2 5.884298 5.000000 45.376500
28 2 5.884298 5.000000 47.836500
29 2 6.598004 5.000000 34.306500
30 2 6.598004 5.000000 36.766500
31 1 6.598004 5.000000 39.226500
32 1 6.598004 5.000000 41.686500
33 1 6.598004 5.000000 44.146500
34 1 6.598004 5.000000 46.606500
35 1 6.598004 5.000000 49.066500
36 1 8.739467 5.000000 33.076500
37 1 8.739467 5.000000 35.536500
38 1 8.739467 5.000000 37.996500
39 1 8.739467 5.000000 40.456500
40 1 8.739467 5.000000 42.916500
41 1 8.739467 5.000000 45.376500
42 1 8.739467 5.000000 47.836500
43 1 8.025760 5.000000 34.306500
44 1 8.025760 5.000000 36.766500
45 1 8.025760 5.000000 39.226500
46 1 8.025760 5.000000 41.686500
47 1 8.025760 5.000000 44.146500
48 1 8.025760 5.000000 46.606500
49 1 8.025760 5.000000 49.066500
50 1 10.167223 5.000000 33.076500
51 1 10.167223 5.000000 35.536500
52 1 10.167223 5.000000 37.996500
53 1 10.167223 5.000000 40.456500
54 1 10.167223 5.000000 42.916500
55 1 10.167223 5.000000 45.376500
56 1 10.167223 5.000000 47.836500
57 1 10.880929 5.000000 34.306500
58 1 10.880929 5.000000 36.766500
59 1 10.880929 5.000000 39.226500
60 1 10.880929 5.000000 41.686500
61 1 10.880929 5.000000 44.146500
62 1 10.880929 5.000000 46.606500
63 1 10.880929 5.000000 49.066500
64 1 13.022392 5.000000 33.076500
65 1 13.022392 5.000000 35.536500
66 1 13.022392 5.000000 37.996500
67 1 13.022392 5.000000 40.456500
68 1 13.022392 5.000000 42.916500
69 1 13.022392 5.000000 45.376500
70 1 13.022392 5.000000 47.836500
71 1 12.308685 5.000000 34.306500
72 1 12.308685 5.000000 36.766500
73 1 12.308685 5.000000 39.226500
74 1 12.308685 5.000000 41.686500
75 1 12.308685 5.000000 44.146500
76 1 12.308685 5.000000 46.606500
77 1 12.308685 5.000000 49.066500
78 1 14.450148 5.000000 33.076500
79 1 14.450148 5.000000 35.536500
80 1 14.450148 5.000000 37.996500
81 1 14.450148 5.000000 40.456500
82 1 14.450148 5.000000 42.916500
83 1 14.450148 5.000000 45.376500
84 1 14.450148 5.000000 47.836500
85 1 15.163854 5.000000 34.306500
86 1 15.163854 5.000000 36.766500
87 1 15.163854 5.000000 39.226500
88 1 15.163854 5.000000 41.686500
89 1 15.163854 5.000000 44.146500
90 1 15.163854 5.000000 46.606500
91 1 15.163854 5.000000 49.066500
92 1 0.173617 5.000000 33.076500
93 1 0.173617 5.000000 35.536500
94 1 0.173617 5.000000 37.996500
95 1 0.173617 5.000000 40.456500
96 1 0.173617 5.000000 42.916500
97 1 0.173617 5.000000 45.376500
98 1 0.173617 5.000000 47.836500
99 1 16.591610 5.000000 34.306500
100 1 16.591610 5.000000 36.766500
101 1 16.591610 5.000000 39.226500
102 1 16.591610 5.000000 41.686500
103 1 16.591610 5.000000 44.146500
104 1 16.591610 5.000000 46.606500
105 1 16.591610 5.000000 49.066500
106 1 1.601373 5.000000 33.076500
107 1 1.601373 5.000000 35.536500
108 1 1.601373 5.000000 37.996500
109 1 1.601373 5.000000 40.456500
110 1 1.601373 5.000000 42.916500
111 1 1.601373 5.000000 45.376500
112 1 1.601373 5.000000 47.836500
113 2 1.744936 5.000000 50.054000
114 2 4.312807 5.000000 50.054000
115 2 6.030089 5.000000 50.055000
116 2 8.595732 5.000000 50.054000
117 2 10.313014 5.000000 50.055000
118 2 12.878657 5.000000 50.054000
119 2 14.595939 5.000000 50.055000
120 2 0.029882 5.000000 50.054000
121 1 -0.039917 5.000000 8.565500
122 1 -0.039917 5.000000 12.826500
123 1 -0.039917 5.000000 17.087500
124 1 -0.039917 5.000000 21.348000
125 1 -0.039917 5.000000 9.986000
126 1 -0.039917 5.000000 14.246500
127 1 -0.039917 5.000000 18.507500
128 1 -0.039917 5.000000 22.768500
129 1 15.868066 5.000000 10.696000
130 1 15.868066 5.000000 14.957000
131 1 15.868066 5.000000 19.217500
132 1 15.868066 5.000000 23.478500
133 1 15.868066 5.000000 7.855500
134 1 15.868066 5.000000 12.116500
135 1 15.868066 5.000000 16.377000
136 1 15.868066 5.000000 20.638000
137 1 14.644348 5.000000 8.565500
138 1 14.644348 5.000000 12.826500
139 1 14.644348 5.000000 17.087500
140 1 14.644348 5.000000 21.348000
141 1 13.420631 5.000000 10.696000
142 1 13.420631 5.000000 14.957000
143 1 13.420631 5.000000 19.217500
144 1 13.420631 5.000000 23.478500
145 1 14.644348 5.000000 9.986000
146 1 14.644348 5.000000 14.246500
147 1 14.644348 5.000000 18.507500
148 1 14.644348 5.000000 22.768500
149 1 13.420631 5.000000 7.855500
150 1 13.420631 5.000000 12.116500
151 1 13.420631 5.000000 16.377000
152 1 13.420631 5.000000 20.638000
153 1 12.197085 5.000000 8.565500
154 1 12.197085 5.000000 12.826500
155 1 12.197085 5.000000 17.087500
156 1 12.197085 5.000000 21.348000
157 1 10.973368 5.000000 10.696000
158 1 10.973368 5.000000 14.957000
159 1 10.973368 5.000000 19.217500
160 1 10.973368 5.000000 23.478500
161 1 12.197085 5.000000 9.986000
162 1 12.197085 5.000000 14.246500
163 1 12.197085 5.000000 18.507500
164 1 12.197085 5.000000 22.768500
165 1 10.973368 5.000000 7.855500
166 1 10.973368 5.000000 12.116500
167 1 10.973368 5.000000 16.377000
168 1 10.973368 5.000000 20.638000
169 1 9.749650 5.000000 8.565500
170 1 9.749650 5.000000 12.826500
171 1 9.749650 5.000000 17.087500
172 1 9.749650 5.000000 21.348000
173 1 8.525933 5.000000 10.696000
174 1 8.525933 5.000000 14.957000
175 1 8.525933 5.000000 19.217500
176 1 8.525933 5.000000 23.478500
177 1 9.749650 5.000000 9.986000
178 1 9.749650 5.000000 14.246500
179 1 9.749650 5.000000 18.507500
180 1 9.749650 5.000000 22.768500
181 1 8.525933 5.000000 7.855500
182 1 8.525933 5.000000 12.116500
183 1 8.525933 5.000000 16.377000
184 1 8.525933 5.000000 20.638000
185 1 7.302216 5.000000 8.565500
186 1 7.302216 5.000000 12.826500
187 1 7.302216 5.000000 17.087500
188 1 7.302216 5.000000 21.348000
189 1 6.078498 5.000000 10.696000
190 1 6.078498 5.000000 14.957000
191 1 6.078498 5.000000 19.217500
192 1 6.078498 5.000000 23.478500
193 1 7.302216 5.000000 9.986000
194 1 7.302216 5.000000 14.246500
195 1 7.302216 5.000000 18.507500
196 1 7.302216 5.000000 22.768500
197 1 6.078498 5.000000 7.855500
198 1 6.078498 5.000000 12.116500
199 1 6.078498 5.000000 16.377000
200 1 6.078498 5.000000 20.638000
201 1 4.854781 5.000000 8.565500
202 1 4.854781 5.000000 12.826500
203 1 4.854781 5.000000 17.087500
204 1 4.854781 5.000000 21.348000
205 1 3.631235 5.000000 10.696000
206 1 3.631235 5.000000 14.957000
207 1 3.631235 5.000000 19.217500
208 1 3.631235 5.000000 23.478500
209 1 4.854781 5.000000 9.986000
210 1 4.854781 5.000000 14.246500
211 1 4.854781 5.000000 18.507500
212 1 4.854781 5.000000 22.768500
213 1 3.631235 5.000000 7.855500
214 1 3.631235 5.000000 12.116500
215 1 3.631235 5.000000 16.377000
216 1 3.631235 5.000000 20.638000
217 1 2.407518 5.000000 8.565500
218 1 2.407518 5.000000 12.826500
219 1 2.407518 5.000000 17.087500
220 1 2.407518 5.000000 21.348000
221 1 1.183800 5.000000 10.696000
222 1 1.183800 5.000000 14.957000
223 1 1.183800 5.000000 19.217500
224 1 1.183800 5.000000 23.478500
225 1 2.407518 5.000000 9.986000
226 1 2.407518 5.000000 14.246500
227 1 2.407518 5.000000 18.507500
228 1 2.407518 5.000000 22.768500
229 1 1.183800 5.000000 7.855500
230 1 1.183800 5.000000 12.116500
231 1 1.183800 5.000000 16.377000
232 1 1.183800 5.000000 20.638000
233 2 15.865667 5.000000 6.715500
234 2 13.423030 5.000000 6.715500
235 2 10.975766 5.000000 6.715500
236 2 8.528332 5.000000 6.715500
237 2 6.080897 5.000000 6.715500
238 2 3.633634 5.000000 6.715500
239 2 1.181402 5.000000 6.715500
240 2 6.596578 2.779432 26.030066
241 2 2.610056 2.228393 25.810812
242 2 13.313702 0.073117 24.406384
243 2 3.733877 0.980058 27.328784
244 2 6.941636 6.745201 24.796556
245 2 12.630750 6.482648 24.392866
246 2 0.377869 9.956855 26.144047
247 2 15.841548 9.857134 25.823247
248 2 9.966472 2.892662 26.404031
249 2 4.259869 5.425327 30.571517
250 2 7.787849 2.357210 30.914755
251 2 2.060031 4.955336 30.002801
252 2 4.953073 7.483839 30.463529
253 2 15.056922 1.602643 29.046619
254 2 14.968259 5.004033 30.433461
255 2 12.601367 5.033736 31.138725
256 2 4.699214 2.961089 31.046645
257 2 9.112739 8.217035 30.770010
258 2 5.901968 3.391128 33.000000
259 2 6.080402 1.270186 32.233040
260 2 2.266141 2.646683 33.000000
261 2 15.463124 4.804861 32.155918
262 2 8.021996 1.901417 33.000000
263 2 3.045869 2.916048 32.242421
264 2 13.195513 6.668128 33.000000
265 2 15.052381 9.294502 31.695768
266 2 7.459665 8.849119 30.634009
267 2 4.059035 6.164554 33.000000
268 1 1.567511 9.841869 26.585526
269 1 5.702450 1.605500 24.718164
270 1 0.188702 1.235656 24.679056
271 1 7.444533 4.209835 25.458825
272 1 2.241352 8.148706 26.675834
273 1 12.050488 1.973516 26.137216
274 1 3.701921 3.416562 25.114522
275 1 16.332625 3.715426 23.500000
276 1 13.151647 9.278444 25.433557
277 1 12.236434 1.107730 23.500000
278 1 11.023280 8.918955 23.500000
279 1 4.180516 4.961185 27.910338
280 1 3.615368 5.305661 23.500000
281 1 12.114115 5.580246 25.101434
282 1 4.722780 1.178239 25.381331
283 1 3.096931 7.891418 27.824567
284 1 10.721327 5.720290 24.039209
285 1 4.551975 6.966358 26.079240
286 1 10.634891 6.057378 28.572235
287 1 15.526691 6.063804 27.702388
288 1 6.870122 8.273023 26.968240
289 1 12.685507 6.590338 24.762635
290 1 13.535368 2.319206 33.000000
291 1 6.455412 2.184434 29.514166
292 1 2.397189 2.080781 31.394622
293 1 0.435503 4.415497 31.721724
294 1 11.850978 8.621043 32.910098
295 1 1.135140 3.032389 28.681223
296 1 14.406265 1.326809 32.991177
297 1 3.687899 2.799579 32.088273
298 1 13.664457 7.209265 30.617941
299 1 2.342334 7.201570 29.883819
300 1 12.478765 8.483330 31.219816
