300
Atoms. Timestep: 0
35992480              4.342668                     5             34.752263
35992480              4.342668                     5             37.212263
35992480              4.342668                     5             39.672263
35992480              4.342668                     5             42.132263
35992480              4.342668                     5             44.592263
35992480              4.342668                     5             47.052263
35992480              4.342668                     5             49.512263
35992480               6.48413                     5             33.522263
35992480               6.48413                     5             35.982263
35992480               6.48413                     5             38.442263
35992480               6.48413                     5             40.902263
35992480               6.48413                     5             43.362263
35992480               6.48413                     5             45.822263
35992480               6.48413                     5             48.282263
35992480              5.770424                     5             34.752263
35992480              5.770424                     5             37.212263
35992480              5.770424                     5             39.672263
35992480              5.770424                     5             42.132263
35992480              5.770424                     5             44.592263
35992480              5.770424                     5             47.052263
35992480              5.770424                     5             49.512263
35992480              7.911886                     5             33.522263
35992480              7.911886                     5             35.982263
35992480              7.911886                     5             38.442263
35992480              7.911886                     5             40.902263
35992480              7.911886                     5             43.362263
35992480              7.911886                     5             45.822263
35992480              7.911886                     5             48.282263
35992480              8.625593                     5             34.752263
35992480              8.625593                     5             37.212263
35992448              8.625593                     5             39.672263
35992448              8.625593                     5             42.132263
35992448              8.625593                     5             44.592263
35992448              8.625593                     5             47.052263
35992448              8.625593                     5             49.512263
35992448             10.767055                     5             33.522263
35992448             10.767055                     5             35.982263
35992448             10.767055                     5             38.442263
35992448             10.767055                     5             40.902263
35992448             10.767055                     5             43.362263
35992448             10.767055                     5             45.822263
35992448             10.767055                     5             48.282263
35992448             10.053349                     5             34.752263
35992448             10.053349                     5             37.212263
35992448             10.053349                     5             39.672263
35992448             10.053349                     5             42.132263
35992448             10.053349                     5             44.592263
35992448             10.053349                     5             47.052263
35992448             10.053349                     5             49.512263
35992448             12.194811                     5             33.522263
35992448             12.194811                     5             35.982263
35992448             12.194811                     5             38.442263
35992448             12.194811                     5             40.902263
35992448             12.194811                     5             43.362263
35992448             12.194811                     5             45.822263
35992448             12.194811                     5             48.282263
35992448             12.908518                     5             34.752263
35992448             12.908518                     5             37.212263
35992448             12.908518                     5             39.672263
35992448             12.908518                     5             42.132263
35992448             12.908518                     5             44.592263
35992448             12.908518                     5             47.052263
35992448             12.908518                     5             49.512263
35992448              15.04998                     5             33.522263
35992448              15.04998                     5             35.982263
35992448              15.04998                     5             38.442263
35992448              15.04998                     5             40.902263
35992448              15.04998                     5             43.362263
35992448              15.04998                     5             45.822263
35992448              15.04998                     5             48.282263
35992448             14.336274                     5             34.752263
35992448             14.336274                     5             37.212263
35992448             14.336274                     5             39.672263
35992448             14.336274                     5             42.132263
35992448             14.336274                     5             44.592263
35992448             14.336274                     5             47.052263
35992448             14.336274                     5             49.512263
35992448             16.477736                     5             33.522263
35992448             16.477736                     5             35.982263
35992448             16.477736                     5             38.442263
35992448             16.477736                     5             40.902263
35992448             16.477736                     5             43.362263
35992448             16.477736                     5             45.822263
35992448             16.477736                     5             48.282263
35992448              0.059743                     5             34.752263
35992448              0.059743                     5             37.212263
35992448              0.059743                     5             39.672263
35992448              0.059743                     5             42.132263
35992448              0.059743                     5             44.592263
35992448              0.059743                     5             47.052263
35992448              0.059743                     5             49.512263
35992448              2.201205                     5             33.522263
35992448              2.201205                     5             35.982263
35992448              2.201205                     5             38.442263
35992448              2.201205                     5             40.902263
35992448              2.201205                     5             43.362263
35992448              2.201205                     5             45.822263
35992448              2.201205                     5             48.282263
35992448              1.487499                     5             34.752263
35992448              1.487499                     5             37.212263
35992448              1.487499                     5             39.672263
35992448              1.487499                     5             42.132263
35992448              1.487499                     5             44.592263
35992448              1.487499                     5             47.052263
35992448              1.487499                     5             49.512263
35992448              3.628961                     5             33.522263
35992448              3.628961                     5             35.982263
35992448              3.628961                     5             38.442263
35992448              3.628961                     5             40.902263
35992448              3.628961                     5             43.362263
35992448              3.628961                     5             45.822263
35992448              3.628961                     5             48.282263
35992480              3.772525                     5     0.499763000000002
35992480              6.340395                     5     0.499763000000002
35992480              8.057677                     5     0.500762999999999
35992480              10.62332                     5     0.499763000000002
35992480             12.340602                     5     0.500762999999999
35992480             14.906245                     5     0.499763000000002
35992480             16.623527                     5     0.500762999999999
35992480               2.05747                     5     0.499763000000002
35992448             17.091783                     5                8.5655
35992448             17.091783                     5               12.8265
35992448             17.091783                     5               17.0875
35992448             17.091783                     5                21.348
35992448             17.091783                     5                 9.986
35992448             17.091783                     5               14.2465
35992448             17.091783                     5               18.5075
35992448             17.091783                     5               22.7685
35992448             15.868066                     5                10.696
35992448             15.868066                     5                14.957
35992448             15.868066                     5               19.2175
35992448             15.868066                     5               23.4785
35992448             15.868066                     5                7.8555
35992448             15.868066                     5               12.1165
35992448             15.868066                     5                16.377
35992448             15.868066                     5                20.638
35992448             14.644348                     5                8.5655
35992448             14.644348                     5               12.8265
35992448             14.644348                     5               17.0875
35992448             14.644348                     5                21.348
35992448             13.420631                     5                10.696
35992448             13.420631                     5                14.957
35992448             13.420631                     5               19.2175
35992448             13.420631                     5               23.4785
35992448             14.644348                     5                 9.986
35992448             14.644348                     5               14.2465
35992448             14.644348                     5               18.5075
35992448             14.644348                     5               22.7685
35992448             13.420631                     5                7.8555
35992448             13.420631                     5               12.1165
35992448             13.420631                     5                16.377
35992448             13.420631                     5                20.638
35992448             12.197085                     5                8.5655
35992448             12.197085                     5               12.8265
35992448             12.197085                     5               17.0875
35992448             12.197085                     5                21.348
35992448             10.973368                     5                10.696
35992448             10.973368                     5                14.957
35992448             10.973368                     5               19.2175
35992448             10.973368                     5               23.4785
35992448             12.197085                     5                 9.986
35992448             12.197085                     5               14.2465
35992448             12.197085                     5               18.5075
35992448             12.197085                     5               22.7685
35992448             10.973368                     5                7.8555
35992448             10.973368                     5               12.1165
35992448             10.973368                     5                16.377
35992448             10.973368                     5                20.638
35992448               9.74965                     5                8.5655
35992448               9.74965                     5               12.8265
35992448               9.74965                     5               17.0875
35992448               9.74965                     5                21.348
35992448              8.525933                     5                10.696
35992448              8.525933                     5                14.957
35992448              8.525933                     5               19.2175
35992448              8.525933                     5               23.4785
35992448               9.74965                     5                 9.986
35992448               9.74965                     5               14.2465
35992448               9.74965                     5               18.5075
35992448               9.74965                     5               22.7685
35992448              8.525933                     5                7.8555
35992448              8.525933                     5               12.1165
35992448              8.525933                     5                16.377
35992448              8.525933                     5                20.638
35992448              7.302216                     5                8.5655
35992448              7.302216                     5               12.8265
35992448              7.302216                     5               17.0875
35992448              7.302216                     5                21.348
35992448              6.078498                     5                10.696
35992448              6.078498                     5                14.957
35992448              6.078498                     5               19.2175
35992448              6.078498                     5               23.4785
35992448              7.302216                     5                 9.986
35992448              7.302216                     5               14.2465
35992448              7.302216                     5               18.5075
35992448              7.302216                     5               22.7685
35992448              6.078498                     5                7.8555
35992448              6.078498                     5               12.1165
35992448              6.078498                     5                16.377
35992448              6.078498                     5                20.638
35992448              4.854781                     5                8.5655
35992448              4.854781                     5               12.8265
35992448              4.854781                     5               17.0875
35992448              4.854781                     5                21.348
35992448              3.631235                     5                10.696
35992448              3.631235                     5                14.957
35992448              3.631235                     5               19.2175
35992448              3.631235                     5               23.4785
35992448              4.854781                     5                 9.986
35992448              4.854781                     5               14.2465
35992448              4.854781                     5               18.5075
35992448              4.854781                     5               22.7685
35992448              3.631235                     5                7.8555
35992448              3.631235                     5               12.1165
35992448              3.631235                     5                16.377
35992448              3.631235                     5                20.638
35992448              2.407518                     5                8.5655
35992448              2.407518                     5               12.8265
35992448              2.407518                     5               17.0875
35992448              2.407518                     5                21.348
35992448                1.1838                     5                10.696
35992448                1.1838                     5                14.957
35992448                1.1838                     5               19.2175
35992448                1.1838                     5               23.4785
35992448              2.407518                     5                 9.986
35992448              2.407518                     5               14.2465
35992448              2.407518                     5               18.5075
35992448              2.407518                     5               22.7685
35992448                1.1838                     5                7.8555
35992448                1.1838                     5               12.1165
35992448                1.1838                     5                16.377
35992448                1.1838                     5                20.638
35992480             15.865667                     5                6.7155
35992480              13.42303                     5                6.7155
35992480             10.975766                     5                6.7155
35992480              8.528332                     5                6.7155
35992480              6.080897                     5                6.7155
35992480              3.633634                     5                6.7155
35992480              1.181402                     5                6.7155
35992480             10.041379              3.419396             26.676206
35992480              4.812395              0.311521                  23.5
35992480             16.976307              4.091428             28.295787
35992480             16.685071              2.025589             28.166723
35992480             13.321855              2.144525             27.148798
35992480              16.16452               1.09434             26.836841
35992480             16.912421              1.317841             26.023552
35992480             12.877868              3.719585             25.742075
35992480             10.482427              3.495142             25.424763
35992480              9.289246               2.97316             29.203281
35992480              6.345945              5.028651             29.991236
35992480              7.478322              4.104496             28.544447
35992480              2.851412              3.208468             29.603946
35992480             11.701547              3.397293             27.986141
35992480              8.464501              6.625596             27.524352
35992480              4.467864              5.430083             25.833471
35992480              4.769214              1.188081             29.871753
35992480             10.341453              9.257193             28.788488
35992480              2.235852              1.354177             33.259991
35992480             16.051811              3.167002             33.445763
35992480              1.485024               4.82552             30.933801
35992480             12.290703              6.294258             29.792282
35992480              7.671226              5.421198             33.445763
35992480              1.996288              0.257078             33.445763
35992480             11.321887              2.061547             31.042626
35992480              5.220321              5.407931               28.6174
35992480              3.400122               5.85218             32.586382
35992480             15.676979               8.31256             30.333812
35992448              7.278408               0.53746             25.164562
35992448              8.021927              2.702901             24.427533
35992448              4.219062              0.715372              24.36152
35992448              5.097073              1.926115             25.464078
35992448              5.269796              5.744383             25.143918
35992448             15.695512              1.558704                  23.5
35992448             10.468756              4.850897             25.444268
35992448              4.429497              6.966371                  23.5
35992448               6.02299              2.395214             23.891974
35992448             13.649578              0.270903                  23.5
35992448             10.548861               1.40526              26.05245
35992448              0.440575              4.057274             31.124856
35992448              1.435854              5.618543             29.116058
35992448             14.621908              2.027327              24.70615
35992448              0.476819              6.347615             32.384702
35992448              7.766093              4.082052             28.394734
35992448              3.823858              3.016525             30.619076
35992448               7.24582              3.754018             28.429286
35992448             14.850898              6.903354             26.267444
35992448             14.709204              8.226822                  23.5
35992448              12.90056              6.636082             26.807049
35992448              2.231625              7.992207             27.765109
35992448              0.344114              1.658267             29.432151
35992448               13.0898              7.221484             29.853812
35992448              1.796349               6.82045             32.769934
35992448              3.480472              9.275967             31.625169
35992448              0.406382               9.60456             32.441911
35992448             14.586305              0.275832             30.681526
35992448              6.236443               9.08821             30.291735
35992448             16.832516              7.576079             30.257506
35992448             11.425564              0.105092             31.588192
35992448             16.279581              0.802648             33.309689
35992448             11.206653              8.453015             33.445763
300
Atoms. Timestep: 9
35992480      4.34451650343213                     5      34.7530495154422
35992480      4.34451650343213                     5      37.2130495154423
35992480      4.34451650343213                     5      39.6730495154423
35992480      4.34451650343213                     5      42.1330495154423
35992480      4.34451650343213                     5      44.5930495154423
35992480      4.34451650343213                     5      47.0530495154423
35992480      4.34451650343213                     5      49.5130495154422
35992480      6.48597850343213                     5      33.5230495154423
35992480      6.48597850343213                     5      35.9830495154423
35992480      6.48597850343213                     5      38.4430495154422
35992480      6.48597850343213                     5      40.9030495154422
35992480      6.48597850343213                     5      43.3630495154422
35992480      6.48597850343213                     5      45.8230495154422
35992480      6.48597850343213                     5      48.2830495154423
35992480      5.77227250343213                     5      34.7530495154422
35992480      5.77227250343213                     5      37.2130495154423
35992480      5.77227250343213                     5      39.6730495154423
35992480      5.77227250343213                     5      42.1330495154423
35992480      5.77227250343213                     5      44.5930495154423
35992480      5.77227250343213                     5      47.0530495154423
35992480      5.77227250343213                     5      49.5130495154422
35992480      7.91373450343213                     5      33.5230495154423
35992480      7.91373450343213                     5      35.9830495154423
35992480      7.91373450343213                     5      38.4430495154422
35992480      7.91373450343213                     5      40.9030495154422
35992480      7.91373450343213                     5      43.3630495154422
35992480      7.91373450343213                     5      45.8230495154422
35992480      7.91373450343213                     5      48.2830495154423
35992480      8.62744150343213                     5      34.7530495154422
35992480      8.62744150343213                     5      37.2130495154423
35992448      8.62744150343213                     5      39.6730495154423
35992448      8.62744150343213                     5      42.1330495154423
35992448      8.62744150343213                     5      44.5930495154423
35992448      8.62744150343213                     5      47.0530495154423
35992448      8.62744150343213                     5      49.5130495154422
35992448      10.7689035034321                     5      33.5230495154423
35992448      10.7689035034321                     5      35.9830495154423
35992448      10.7689035034321                     5      38.4430495154422
35992448      10.7689035034321                     5      40.9030495154422
35992448      10.7689035034321                     5      43.3630495154422
35992448      10.7689035034321                     5      45.8230495154422
35992448      10.7689035034321                     5      48.2830495154423
35992448      10.0551975034321                     5      34.7530495154422
35992448      10.0551975034321                     5      37.2130495154423
35992448      10.0551975034321                     5      39.6730495154423
35992448      10.0551975034321                     5      42.1330495154423
35992448      10.0551975034321                     5      44.5930495154423
35992448      10.0551975034321                     5      47.0530495154423
35992448      10.0551975034321                     5      49.5130495154422
35992448      12.1966595034321                     5      33.5230495154423
35992448      12.1966595034321                     5      35.9830495154423
35992448      12.1966595034321                     5      38.4430495154422
35992448      12.1966595034321                     5      40.9030495154422
35992448      12.1966595034321                     5      43.3630495154422
35992448      12.1966595034321                     5      45.8230495154422
35992448      12.1966595034321                     5      48.2830495154423
35992448      12.9103665034321                     5      34.7530495154422
35992448      12.9103665034321                     5      37.2130495154423
35992448      12.9103665034321                     5      39.6730495154423
35992448      12.9103665034321                     5      42.1330495154423
35992448      12.9103665034321                     5      44.5930495154423
35992448      12.9103665034321                     5      47.0530495154423
35992448      12.9103665034321                     5      49.5130495154422
35992448      15.0518285034321                     5      33.5230495154423
35992448      15.0518285034321                     5      35.9830495154423
35992448      15.0518285034321                     5      38.4430495154422
35992448      15.0518285034321                     5      40.9030495154422
35992448      15.0518285034321                     5      43.3630495154422
35992448      15.0518285034321                     5      45.8230495154422
35992448      15.0518285034321                     5      48.2830495154423
35992448      14.3381225034321                     5      34.7530495154422
35992448      14.3381225034321                     5      37.2130495154423
35992448      14.3381225034321                     5      39.6730495154423
35992448      14.3381225034321                     5      42.1330495154423
35992448      14.3381225034321                     5      44.5930495154423
35992448      14.3381225034321                     5      47.0530495154423
35992448      14.3381225034321                     5      49.5130495154422
35992448      16.4795845034321                     5      33.5230495154423
35992448      16.4795845034321                     5      35.9830495154423
35992448      16.4795845034321                     5      38.4430495154422
35992448      16.4795845034321                     5      40.9030495154422
35992448      16.4795845034321                     5      43.3630495154422
35992448      16.4795845034321                     5      45.8230495154422
35992448      16.4795845034321                     5      48.2830495154423
35992448    0.0615915034321284                     5      34.7530495154422
35992448    0.0615915034321284                     5      37.2130495154423
35992448    0.0615915034321284                     5      39.6730495154423
35992448    0.0615915034321284                     5      42.1330495154423
35992448    0.0615915034321284                     5      44.5930495154423
35992448    0.0615915034321284                     5      47.0530495154423
35992448    0.0615915034321284                     5      49.5130495154422
35992448      2.20305350343213                     5      33.5230495154423
35992448      2.20305350343213                     5      35.9830495154423
35992448      2.20305350343213                     5      38.4430495154422
35992448      2.20305350343213                     5      40.9030495154422
35992448      2.20305350343213                     5      43.3630495154422
35992448      2.20305350343213                     5      45.8230495154422
35992448      2.20305350343213                     5      48.2830495154423
35992448      1.48934750343213                     5      34.7530495154422