LAMMPS (30 Aug 2012)
units		metal
boundary	p p p
atom_style	atomic
read_data	struct.lammps
  orthogonal box = (0 0 0) to (17.1317 10 50)
  1 by 1 by 1 MPI processor grid
  300 atoms

pair_style      airebo 3.0
pair_coeff      * * CH.airebo C H

mass	1	12.0
mass	2	1.0

group		fixPosH id <> 1 120
120 atoms in group fixPosH
group		fixPosL id <> 121 239
119 atoms in group fixPosL
group		optPos  id <> 240 1000
61 atoms in group optPos
fix             0       fixPosH setforce NULL 0.0 NULL
fix             1       fixPosH aveforce 0.0 0.0 0.0
fix		2	fixPosL setforce 0.0 0.0 0.0
fix 		3	optPos	setforce NULL 0.0 NULL

neighbor        0.2 bin
neigh_modify	every 1 delay 0 check yes

timestep	0.002
thermo 		1
thermo_style    custom step  pe etotal lx ly lz 

dump		1 all xyz 10000000 dump.atom
dump_modify	1 format "%d  %20.15g  %20.15g  %20.15g" 
#fix 		8 all box/relax iso 0.0 
min_style	cg
minimize	1.0e-12 1.0e-12 10 10
Memory usage per processor = 3.26671 Mbytes
Step PotEng TotEng Lx Ly Lz 
       0   -705.80965   -705.80965      17.1317           10           50 
       1   -947.68419   -947.68419      17.1317           10           50 
       2   -1048.9375   -1048.9375      17.1317           10           50 
       3   -1095.2168   -1095.2168      17.1317           10           50 
       4   -1120.6166   -1120.6166      17.1317           10           50 
       5   -1135.2768   -1135.2768      17.1317           10           50 
       6   -1146.1364   -1146.1364      17.1317           10           50 
       7   -1151.6121   -1151.6121      17.1317           10           50 
       8   -1157.1267   -1157.1267      17.1317           10           50 
       9   -1159.3346   -1159.3346      17.1317           10           50 
Loop time of 0.355076 on 1 procs for 9 steps with 300 atoms

Minimization stats:
  Stopping criterion = max force evaluations
  Energy initial, next-to-last, final = 
        -705.809648835      -1157.1266755     -1159.33455701
  Force two-norm initial, final = 2741.33 43.7413
  Force max component initial, final = 2040.47 18.0189
  Final line search alpha, max atom move = 0.000858139 0.0154627
  Iterations, force evaluations = 9 11

Pair  time (%) = 0.149009 (41.9655)
Neigh time (%) = 0.20261 (57.0611)
Comm  time (%) = 0.00141001 (0.3971)
Outpt time (%) = 0.00013566 (0.038206)
Other time (%) = 0.00191069 (0.538107)

Nlocal:    300 ave 300 max 300 min
Histogram: 1 0 0 0 0 0 0 0 0 0
Nghost:    2391 ave 2391 max 2391 min
Histogram: 1 0 0 0 0 0 0 0 0 0
Neighs:    0 ave 0 max 0 min
Histogram: 1 0 0 0 0 0 0 0 0 0
FullNghs:  46116 ave 46116 max 46116 min
Histogram: 1 0 0 0 0 0 0 0 0 0

Total # of neighbors = 46116
Ave neighs/atom = 153.72
Neighbor list builds = 9
Dangerous builds = 9
min_modify line quadratic

clear
