search structure

300 atoms
2  atom types

0   17.131700 xlo xhi
0   10.000000 ylo yhi
0   50.000000 zlo zhi

Atoms

1 2 4.342668 5.000000 34.752263
2 2 4.342668 5.000000 37.212263
3 2 4.342668 5.000000 39.672263
4 2 4.342668 5.000000 42.132263
5 2 4.342668 5.000000 44.592263
6 2 4.342668 5.000000 47.052263
7 2 4.342668 5.000000 49.512263
8 2 6.484130 5.000000 33.522263
9 2 6.484130 5.000000 35.982263
10 2 6.484130 5.000000 38.442263
11 2 6.484130 5.000000 40.902263
12 2 6.484130 5.000000 43.362263
13 2 6.484130 5.000000 45.822263
14 2 6.484130 5.000000 48.282263
15 2 5.770424 5.000000 34.752263
16 2 5.770424 5.000000 37.212263
17 2 5.770424 5.000000 39.672263
18 2 5.770424 5.000000 42.132263
19 2 5.770424 5.000000 44.592263
20 2 5.770424 5.000000 47.052263
21 2 5.770424 5.000000 49.512263
22 2 7.911886 5.000000 33.522263
23 2 7.911886 5.000000 35.982263
24 2 7.911886 5.000000 38.442263
25 2 7.911886 5.000000 40.902263
26 2 7.911886 5.000000 43.362263
27 2 7.911886 5.000000 45.822263
28 2 7.911886 5.000000 48.282263
29 2 8.625593 5.000000 34.752263
30 2 8.625593 5.000000 37.212263
31 1 8.625593 5.000000 39.672263
32 1 8.625593 5.000000 42.132263
33 1 8.625593 5.000000 44.592263
34 1 8.625593 5.000000 47.052263
35 1 8.625593 5.000000 49.512263
36 1 10.767055 5.000000 33.522263
37 1 10.767055 5.000000 35.982263
38 1 10.767055 5.000000 38.442263
39 1 10.767055 5.000000 40.902263
40 1 10.767055 5.000000 43.362263
41 1 10.767055 5.000000 45.822263
42 1 10.767055 5.000000 48.282263
43 1 10.053349 5.000000 34.752263
44 1 10.053349 5.000000 37.212263
45 1 10.053349 5.000000 39.672263
46 1 10.053349 5.000000 42.132263
47 1 10.053349 5.000000 44.592263
48 1 10.053349 5.000000 47.052263
49 1 10.053349 5.000000 49.512263
50 1 12.194811 5.000000 33.522263
51 1 12.194811 5.000000 35.982263
52 1 12.194811 5.000000 38.442263
53 1 12.194811 5.000000 40.902263
54 1 12.194811 5.000000 43.362263
55 1 12.194811 5.000000 45.822263
56 1 12.194811 5.000000 48.282263
57 1 12.908518 5.000000 34.752263
58 1 12.908518 5.000000 37.212263
59 1 12.908518 5.000000 39.672263
60 1 12.908518 5.000000 42.132263
61 1 12.908518 5.000000 44.592263
62 1 12.908518 5.000000 47.052263
63 1 12.908518 5.000000 49.512263
64 1 15.049980 5.000000 33.522263
65 1 15.049980 5.000000 35.982263
66 1 15.049980 5.000000 38.442263
67 1 15.049980 5.000000 40.902263
68 1 15.049980 5.000000 43.362263
69 1 15.049980 5.000000 45.822263
70 1 15.049980 5.000000 48.282263
71 1 14.336274 5.000000 34.752263
72 1 14.336274 5.000000 37.212263
73 1 14.336274 5.000000 39.672263
74 1 14.336274 5.000000 42.132263
75 1 14.336274 5.000000 44.592263
76 1 14.336274 5.000000 47.052263
77 1 14.336274 5.000000 49.512263
78 1 16.477736 5.000000 33.522263
79 1 16.477736 5.000000 35.982263
80 1 16.477736 5.000000 38.442263
81 1 16.477736 5.000000 40.902263
82 1 16.477736 5.000000 43.362263
83 1 16.477736 5.000000 45.822263
84 1 16.477736 5.000000 48.282263
85 1 0.059743 5.000000 34.752263
86 1 0.059743 5.000000 37.212263
87 1 0.059743 5.000000 39.672263
88 1 0.059743 5.000000 42.132263
89 1 0.059743 5.000000 44.592263
90 1 0.059743 5.000000 47.052263
91 1 0.059743 5.000000 49.512263
92 1 2.201205 5.000000 33.522263
93 1 2.201205 5.000000 35.982263
94 1 2.201205 5.000000 38.442263
95 1 2.201205 5.000000 40.902263
96 1 2.201205 5.000000 43.362263
97 1 2.201205 5.000000 45.822263
98 1 2.201205 5.000000 48.282263
99 1 1.487499 5.000000 34.752263
100 1 1.487499 5.000000 37.212263
101 1 1.487499 5.000000 39.672263
102 1 1.487499 5.000000 42.132263
103 1 1.487499 5.000000 44.592263
104 1 1.487499 5.000000 47.052263
105 1 1.487499 5.000000 49.512263
106 1 3.628961 5.000000 33.522263
107 1 3.628961 5.000000 35.982263
108 1 3.628961 5.000000 38.442263
109 1 3.628961 5.000000 40.902263
110 1 3.628961 5.000000 43.362263
111 1 3.628961 5.000000 45.822263
112 1 3.628961 5.000000 48.282263
113 2 3.772525 5.000000 50.499763
114 2 6.340395 5.000000 50.499763
115 2 8.057677 5.000000 50.500763
116 2 10.623320 5.000000 50.499763
117 2 12.340602 5.000000 50.500763
118 2 14.906245 5.000000 50.499763
119 2 16.623527 5.000000 50.500763
120 2 2.057470 5.000000 50.499763
121 1 -0.039917 5.000000 8.565500
122 1 -0.039917 5.000000 12.826500
123 1 -0.039917 5.000000 17.087500
124 1 -0.039917 5.000000 21.348000
125 1 -0.039917 5.000000 9.986000
126 1 -0.039917 5.000000 14.246500
127 1 -0.039917 5.000000 18.507500
128 1 -0.039917 5.000000 22.768500
129 1 15.868066 5.000000 10.696000
130 1 15.868066 5.000000 14.957000
131 1 15.868066 5.000000 19.217500
132 1 15.868066 5.000000 23.478500
133 1 15.868066 5.000000 7.855500
134 1 15.868066 5.000000 12.116500
135 1 15.868066 5.000000 16.377000
136 1 15.868066 5.000000 20.638000
137 1 14.644348 5.000000 8.565500
138 1 14.644348 5.000000 12.826500
139 1 14.644348 5.000000 17.087500
140 1 14.644348 5.000000 21.348000
141 1 13.420631 5.000000 10.696000
142 1 13.420631 5.000000 14.957000
143 1 13.420631 5.000000 19.217500
144 1 13.420631 5.000000 23.478500
145 1 14.644348 5.000000 9.986000
146 1 14.644348 5.000000 14.246500
147 1 14.644348 5.000000 18.507500
148 1 14.644348 5.000000 22.768500
149 1 13.420631 5.000000 7.855500
150 1 13.420631 5.000000 12.116500
151 1 13.420631 5.000000 16.377000
152 1 13.420631 5.000000 20.638000
153 1 12.197085 5.000000 8.565500
154 1 12.197085 5.000000 12.826500
155 1 12.197085 5.000000 17.087500
156 1 12.197085 5.000000 21.348000
157 1 10.973368 5.000000 10.696000
158 1 10.973368 5.000000 14.957000
159 1 10.973368 5.000000 19.217500
160 1 10.973368 5.000000 23.478500
161 1 12.197085 5.000000 9.986000
162 1 12.197085 5.000000 14.246500
163 1 12.197085 5.000000 18.507500
164 1 12.197085 5.000000 22.768500
165 1 10.973368 5.000000 7.855500
166 1 10.973368 5.000000 12.116500
167 1 10.973368 5.000000 16.377000
168 1 10.973368 5.000000 20.638000
169 1 9.749650 5.000000 8.565500
170 1 9.749650 5.000000 12.826500
171 1 9.749650 5.000000 17.087500
172 1 9.749650 5.000000 21.348000
173 1 8.525933 5.000000 10.696000
174 1 8.525933 5.000000 14.957000
175 1 8.525933 5.000000 19.217500
176 1 8.525933 5.000000 23.478500
177 1 9.749650 5.000000 9.986000
178 1 9.749650 5.000000 14.246500
179 1 9.749650 5.000000 18.507500
180 1 9.749650 5.000000 22.768500
181 1 8.525933 5.000000 7.855500
182 1 8.525933 5.000000 12.116500
183 1 8.525933 5.000000 16.377000
184 1 8.525933 5.000000 20.638000
185 1 7.302216 5.000000 8.565500
186 1 7.302216 5.000000 12.826500
187 1 7.302216 5.000000 17.087500
188 1 7.302216 5.000000 21.348000
189 1 6.078498 5.000000 10.696000
190 1 6.078498 5.000000 14.957000
191 1 6.078498 5.000000 19.217500
192 1 6.078498 5.000000 23.478500
193 1 7.302216 5.000000 9.986000
194 1 7.302216 5.000000 14.246500
195 1 7.302216 5.000000 18.507500
196 1 7.302216 5.000000 22.768500
197 1 6.078498 5.000000 7.855500
198 1 6.078498 5.000000 12.116500
199 1 6.078498 5.000000 16.377000
200 1 6.078498 5.000000 20.638000
201 1 4.854781 5.000000 8.565500
202 1 4.854781 5.000000 12.826500
203 1 4.854781 5.000000 17.087500
204 1 4.854781 5.000000 21.348000
205 1 3.631235 5.000000 10.696000
206 1 3.631235 5.000000 14.957000
207 1 3.631235 5.000000 19.217500
208 1 3.631235 5.000000 23.478500
209 1 4.854781 5.000000 9.986000
210 1 4.854781 5.000000 14.246500
211 1 4.854781 5.000000 18.507500
212 1 4.854781 5.000000 22.768500
213 1 3.631235 5.000000 7.855500
214 1 3.631235 5.000000 12.116500
215 1 3.631235 5.000000 16.377000
216 1 3.631235 5.000000 20.638000
217 1 2.407518 5.000000 8.565500
218 1 2.407518 5.000000 12.826500
219 1 2.407518 5.000000 17.087500
220 1 2.407518 5.000000 21.348000
221 1 1.183800 5.000000 10.696000
222 1 1.183800 5.000000 14.957000
223 1 1.183800 5.000000 19.217500
224 1 1.183800 5.000000 23.478500
225 1 2.407518 5.000000 9.986000
226 1 2.407518 5.000000 14.246500
227 1 2.407518 5.000000 18.507500
228 1 2.407518 5.000000 22.768500
229 1 1.183800 5.000000 7.855500
230 1 1.183800 5.000000 12.116500
231 1 1.183800 5.000000 16.377000
232 1 1.183800 5.000000 20.638000
233 2 15.865667 5.000000 6.715500
234 2 13.423030 5.000000 6.715500
235 2 10.975766 5.000000 6.715500
236 2 8.528332 5.000000 6.715500
237 2 6.080897 5.000000 6.715500
238 2 3.633634 5.000000 6.715500
239 2 1.181402 5.000000 6.715500
240 2 10.041379 3.419396 26.676206
241 2 4.812395 0.311521 23.500000
242 2 16.976307 4.091428 28.295787
243 2 16.685071 2.025589 28.166723
244 2 13.321855 2.144525 27.148798
245 2 16.164520 1.094340 26.836841
246 2 16.912421 1.317841 26.023552
247 2 12.877868 3.719585 25.742075
248 2 10.482427 3.495142 25.424763
249 2 9.289246 2.973160 29.203281
250 2 6.345945 5.028651 29.991236
251 2 7.478322 4.104496 28.544447
252 2 2.851412 3.208468 29.603946
253 2 11.701547 3.397293 27.986141
254 2 8.464501 6.625596 27.524352
255 2 4.467864 5.430083 25.833471
256 2 4.769214 1.188081 29.871753
257 2 10.341453 9.257193 28.788488
258 2 2.235852 1.354177 33.259991
259 2 16.051811 3.167002 33.445763
260 2 1.485024 4.825520 30.933801
261 2 12.290703 6.294258 29.792282
262 2 7.671226 5.421198 33.445763
263 2 1.996288 0.257078 33.445763
264 2 11.321887 2.061547 31.042626
265 2 5.220321 5.407931 28.617400
266 2 3.400122 5.852180 32.586382
267 2 15.676979 8.312560 30.333812
268 1 7.278408 0.537460 25.164562
269 1 8.021927 2.702901 24.427533
270 1 4.219062 0.715372 24.361520
271 1 5.097073 1.926115 25.464078
272 1 5.269796 5.744383 25.143918
273 1 15.695512 1.558704 23.500000
274 1 10.468756 4.850897 25.444268
275 1 4.429497 6.966371 23.500000
276 1 6.022990 2.395214 23.891974
277 1 13.649578 0.270903 23.500000
278 1 10.548861 1.405260 26.052450
279 1 0.440575 4.057274 31.124856
280 1 1.435854 5.618543 29.116058
281 1 14.621908 2.027327 24.706150
282 1 0.476819 6.347615 32.384702
283 1 7.766093 4.082052 28.394734
284 1 3.823858 3.016525 30.619076
285 1 7.245820 3.754018 28.429286
286 1 14.850898 6.903354 26.267444
287 1 14.709204 8.226822 23.500000
288 1 12.900560 6.636082 26.807049
289 1 2.231625 7.992207 27.765109
290 1 0.344114 1.658267 29.432151
291 1 13.089800 7.221484 29.853812
292 1 1.796349 6.820450 32.769934
293 1 3.480472 9.275967 31.625169
294 1 0.406382 9.604560 32.441911
295 1 14.586305 0.275832 30.681526
296 1 6.236443 9.088210 30.291735
297 1 16.832516 7.576079 30.257506
298 1 11.425564 0.105092 31.588192
299 1 16.279581 0.802648 33.309689
300 1 11.206653 8.453015 33.445763
