300
Atoms. Timestep: 0
481280928             15.395305                     5               34.3065
481280928             15.395305                     5               36.7665
481280928             15.395305                     5               39.2265
481280928             15.395305                     5               41.6865
481280928             15.395305                     5               44.1465
481280928             15.395305                     5               46.6065
481280928             15.395305                     5               49.0665
481280928              0.405068                     5               33.0765
481280928              0.405068                     5               35.5365
481280928              0.405068                     5               37.9965
481280928              0.405068                     5               40.4565
481280928              0.405068                     5               42.9165
481280928              0.405068                     5               45.3765
481280928              0.405068                     5               47.8365
481280928             16.823061                     5               34.3065
481280928             16.823061                     5               36.7665
481280928             16.823061                     5               39.2265
481280928             16.823061                     5               41.6865
481280928             16.823061                     5               44.1465
481280928             16.823061                     5               46.6065
481280928             16.823061                     5               49.0665
481280928              1.832824                     5               33.0765
481280928              1.832824                     5               35.5365
481280928              1.832824                     5               37.9965
481280928              1.832824                     5               40.4565
481280928              1.832824                     5               42.9165
481280928              1.832824                     5               45.3765
481280928              1.832824                     5               47.8365
481280928               2.54653                     5               34.3065
481280928               2.54653                     5               36.7665
481280896               2.54653                     5               39.2265
481280896               2.54653                     5               41.6865
481280896               2.54653                     5               44.1465
481280896               2.54653                     5               46.6065
481280896               2.54653                     5               49.0665
481280896              4.687993                     5               33.0765
481280896              4.687993                     5               35.5365
481280896              4.687993                     5               37.9965
481280896              4.687993                     5               40.4565
481280896              4.687993                     5               42.9165
481280896              4.687993                     5               45.3765
481280896              4.687993                     5               47.8365
481280896              3.974286                     5               34.3065
481280896              3.974286                     5               36.7665
481280896              3.974286                     5               39.2265
481280896              3.974286                     5               41.6865
481280896              3.974286                     5               44.1465
481280896              3.974286                     5               46.6065
481280896              3.974286                     5               49.0665
481280896              6.115749                     5               33.0765
481280896              6.115749                     5               35.5365
481280896              6.115749                     5               37.9965
481280896              6.115749                     5               40.4565
481280896              6.115749                     5               42.9165
481280896              6.115749                     5               45.3765
481280896              6.115749                     5               47.8365
481280896              6.829455                     5               34.3065
481280896              6.829455                     5               36.7665
481280896              6.829455                     5               39.2265
481280896              6.829455                     5               41.6865
481280896              6.829455                     5               44.1465
481280896              6.829455                     5               46.6065
481280896              6.829455                     5               49.0665
481280896              8.970918                     5               33.0765
481280896              8.970918                     5               35.5365
481280896              8.970918                     5               37.9965
481280896              8.970918                     5               40.4565
481280896              8.970918                     5               42.9165
481280896              8.970918                     5               45.3765
481280896              8.970918                     5               47.8365
481280896              8.257211                     5               34.3065
481280896              8.257211                     5               36.7665
481280896              8.257211                     5               39.2265
481280896              8.257211                     5               41.6865
481280896              8.257211                     5               44.1465
481280896              8.257211                     5               46.6065
481280896              8.257211                     5               49.0665
481280896             10.398674                     5               33.0765
481280896             10.398674                     5               35.5365
481280896             10.398674                     5               37.9965
481280896             10.398674                     5               40.4565
481280896             10.398674                     5               42.9165
481280896             10.398674                     5               45.3765
481280896             10.398674                     5               47.8365
481280896              11.11238                     5               34.3065
481280896              11.11238                     5               36.7665
481280896              11.11238                     5               39.2265
481280896              11.11238                     5               41.6865
481280896              11.11238                     5               44.1465
481280896              11.11238                     5               46.6065
481280896              11.11238                     5               49.0665
481280896             13.253843                     5               33.0765
481280896             13.253843                     5               35.5365
481280896             13.253843                     5               37.9965
481280896             13.253843                     5               40.4565
481280896             13.253843                     5               42.9165
481280896             13.253843                     5               45.3765
481280896             13.253843                     5               47.8365
481280896             12.540136                     5               34.3065
481280896             12.540136                     5               36.7665
481280896             12.540136                     5               39.2265
481280896             12.540136                     5               41.6865
481280896             12.540136                     5               44.1465
481280896             12.540136                     5               46.6065
481280896             12.540136                     5               49.0665
481280896             14.681599                     5               33.0765
481280896             14.681599                     5               35.5365
481280896             14.681599                     5               37.9965
481280896             14.681599                     5               40.4565
481280896             14.681599                     5               42.9165
481280896             14.681599                     5               45.3765
481280896             14.681599                     5               47.8365
481280928             14.825163                     5     0.054000000000002
481280928              0.261333                     5     0.054000000000002
481280928              1.978615                     5    0.0549999999999997
481280928              4.544258                     5     0.054000000000002
481280928               6.26154                     5    0.0549999999999997
481280928              8.827183                     5     0.054000000000002
481280928             10.544465                     5    0.0549999999999997
481280928             13.110108                     5     0.054000000000002
481280896             17.091783                     5                8.5655
481280896             17.091783                     5               12.8265
481280896             17.091783                     5               17.0875
481280896             17.091783                     5                21.348
481280896             17.091783                     5                 9.986
481280896             17.091783                     5               14.2465
481280896             17.091783                     5               18.5075
481280896             17.091783                     5               22.7685
481280896             15.868066                     5                10.696
481280896             15.868066                     5                14.957
481280896             15.868066                     5               19.2175
481280896             15.868066                     5               23.4785
481280896             15.868066                     5                7.8555
481280896             15.868066                     5               12.1165
481280896             15.868066                     5                16.377
481280896             15.868066                     5                20.638
481280896             14.644348                     5                8.5655
481280896             14.644348                     5               12.8265
481280896             14.644348                     5               17.0875
481280896             14.644348                     5                21.348
481280896             13.420631                     5                10.696
481280896             13.420631                     5                14.957
481280896             13.420631                     5               19.2175
481280896             13.420631                     5               23.4785
481280896             14.644348                     5                 9.986
481280896             14.644348                     5               14.2465
481280896             14.644348                     5               18.5075
481280896             14.644348                     5               22.7685
481280896             13.420631                     5                7.8555
481280896             13.420631                     5               12.1165
481280896             13.420631                     5                16.377
481280896             13.420631                     5                20.638
481280896             12.197085                     5                8.5655
481280896             12.197085                     5               12.8265
481280896             12.197085                     5               17.0875
481280896             12.197085                     5                21.348
481280896             10.973368                     5                10.696
481280896             10.973368                     5                14.957
481280896             10.973368                     5               19.2175
481280896             10.973368                     5               23.4785
481280896             12.197085                     5                 9.986
481280896             12.197085                     5               14.2465
481280896             12.197085                     5               18.5075
481280896             12.197085                     5               22.7685
481280896             10.973368                     5                7.8555
481280896             10.973368                     5               12.1165
481280896             10.973368                     5                16.377
481280896             10.973368                     5                20.638
481280896               9.74965                     5                8.5655
481280896               9.74965                     5               12.8265
481280896               9.74965                     5               17.0875
481280896               9.74965                     5                21.348
481280896              8.525933                     5                10.696
481280896              8.525933                     5                14.957
481280896              8.525933                     5               19.2175
481280896              8.525933                     5               23.4785
481280896               9.74965                     5                 9.986
481280896               9.74965                     5               14.2465
481280896               9.74965                     5               18.5075
481280896               9.74965                     5               22.7685
481280896              8.525933                     5                7.8555
481280896              8.525933                     5               12.1165
481280896              8.525933                     5                16.377
481280896              8.525933                     5                20.638
481280896              7.302216                     5                8.5655
481280896              7.302216                     5               12.8265
481280896              7.302216                     5               17.0875
481280896              7.302216                     5                21.348
481280896              6.078498                     5                10.696
481280896              6.078498                     5                14.957
481280896              6.078498                     5               19.2175
481280896              6.078498                     5               23.4785
481280896              7.302216                     5                 9.986
481280896              7.302216                     5               14.2465
481280896              7.302216                     5               18.5075
481280896              7.302216                     5               22.7685
481280896              6.078498                     5                7.8555
481280896              6.078498                     5               12.1165
481280896              6.078498                     5                16.377
481280896              6.078498                     5                20.638
481280896              4.854781                     5                8.5655
481280896              4.854781                     5               12.8265
481280896              4.854781                     5               17.0875
481280896              4.854781                     5                21.348
481280896              3.631235                     5                10.696
481280896              3.631235                     5                14.957
481280896              3.631235                     5               19.2175
481280896              3.631235                     5               23.4785
481280896              4.854781                     5                 9.986
481280896              4.854781                     5               14.2465
481280896              4.854781                     5               18.5075
481280896              4.854781                     5               22.7685
481280896              3.631235                     5                7.8555
481280896              3.631235                     5               12.1165
481280896              3.631235                     5                16.377
481280896              3.631235                     5                20.638
481280896              2.407518                     5                8.5655
481280896              2.407518                     5               12.8265
481280896              2.407518                     5               17.0875
481280896              2.407518                     5                21.348
481280896                1.1838                     5                10.696
481280896                1.1838                     5                14.957
481280896                1.1838                     5               19.2175
481280896                1.1838                     5               23.4785
481280896              2.407518                     5                 9.986
481280896              2.407518                     5               14.2465
481280896              2.407518                     5               18.5075
481280896              2.407518                     5               22.7685
481280896                1.1838                     5                7.8555
481280896                1.1838                     5               12.1165
481280896                1.1838                     5                16.377
481280896                1.1838                     5                20.638
481280928             15.865667                     5                6.7155
481280928              13.42303                     5                6.7155
481280928             10.975766                     5                6.7155
481280928              8.528332                     5                6.7155
481280928              6.080897                     5                6.7155
481280928              3.633634                     5                6.7155
481280928              1.181402                     5                6.7155
481280928              4.624022              1.026619             27.960853
481280928              1.502166              2.576487             24.360137
481280928              9.380151              3.391278             24.259017
481280928             12.362787              3.710433             26.322296
481280928             12.942401              2.322405                  23.5
481280928               9.09937              3.317498             24.885623
481280928             15.092438               4.91941                  23.5
481280928             13.013091              6.592905             23.545048
481280928              2.307275              5.742815             24.157419
481280928             16.034649              0.657359             29.448353
481280928             11.152119              2.218513             27.494117
481280928              1.372553              3.597848             27.345716
481280928              6.407988              4.753243              26.54819
481280928             15.999028              8.914313             26.242224
481280928             15.176809              8.741189             26.712486
481280928              1.501392              9.334583             24.670163
481280928              8.198686              9.609133             27.177959
481280928              7.488297              6.733324             28.194939
481280928               7.50335              1.157383             31.566778
481280928              3.648631              4.903313             29.865703
481280928              4.245348              5.314386             31.267038
481280928              9.277328              0.093888             28.761279
481280928              7.530937              2.946499             30.377654
481280928              8.042681              9.365677             32.655518
481280928             11.812182              3.283873             32.530934
481280928              3.714382              3.741774             29.819572
481280928             15.088563              3.580401             31.211475
481280928              4.675854              7.454783             30.928601
481280896             10.955204               2.76963             25.699388
481280896              7.685563               4.67551             23.649283
481280896              7.569068               6.30631             23.892362
481280896             13.822753              0.066692             25.620558
481280896             11.771026              0.556268                  23.5
481280896              0.580716              0.388495             25.088074
481280896             12.755066              0.886837             23.569185
481280896             14.614269              4.479414             26.321312
481280896             12.817002              6.352029             24.861006
481280896              14.12306              9.505793              25.40021
481280896             14.867183              1.106262             25.345706
481280896             16.632332              1.901518              28.32015
481280896              2.751111              2.350745             29.267448
481280896              2.361301              0.929089             28.483064
481280896              2.128371              3.663932             25.625665
481280896              0.595226              7.479694             29.362138
481280896              1.872572              2.197075             26.749126
481280896             15.146725              2.454714             26.478276
481280896              7.037504              6.439346             28.265018
481280896             11.313752              9.866175             26.793799
481280896             12.544774              8.597185             26.617491
481280896              10.64484              9.472029             26.231383
481280896              7.266646              0.970287             32.147039
481280896             11.836953              1.836914              29.41086
481280896              9.223558              6.060659             30.051857
481280896             15.132109               7.05407                    33
481280896             16.157028              9.160194                    33
481280896             14.207296                3.5064             28.724687
481280896              9.163035              2.784021             31.346936
481280896             15.371257              1.059501             32.762862
481280896             16.527183              1.727729             31.913939
481280896             15.415686              5.301454                    33
481280896             13.420458              0.761279                    33
300
Atoms. Timestep: 9
481280928      15.3927872498512                     5      34.3057063760894
481280928      15.3927872498512                     5      36.7657063760894
481280928      15.3927872498512                     5      39.2257063760894
481280928      15.3927872498512                     5      41.6857063760894
481280928      15.3927872498512                     5      44.1457063760894
481280928      15.3927872498512                     5      46.6057063760894
481280928      15.3927872498512                     5      49.0657063760894
481280928     0.402550249851173                     5      33.0757063760894
481280928     0.402550249851173                     5      35.5357063760894
481280928     0.402550249851173                     5      37.9957063760894
481280928     0.402550249851173                     5      40.4557063760894
481280928     0.402550249851173                     5      42.9157063760894
481280928     0.402550249851173                     5      45.3757063760894
481280928     0.402550249851173                     5      47.8357063760894
481280928      16.8205432498512                     5      34.3057063760894
481280928      16.8205432498512                     5      36.7657063760894
481280928      16.8205432498512                     5      39.2257063760894
481280928      16.8205432498512                     5      41.6857063760894
481280928      16.8205432498512                     5      44.1457063760894
481280928      16.8205432498512                     5      46.6057063760894
481280928      16.8205432498512                     5      49.0657063760894
481280928      1.83030624985117                     5      33.0757063760894
481280928      1.83030624985117                     5      35.5357063760894
481280928      1.83030624985117                     5      37.9957063760894
481280928      1.83030624985117                     5      40.4557063760894
481280928      1.83030624985117                     5      42.9157063760894
481280928      1.83030624985117                     5      45.3757063760894
481280928      1.83030624985117                     5      47.8357063760894
481280928      2.54401224985117                     5      34.3057063760894
481280928      2.54401224985117                     5      36.7657063760894
481280896      2.54401224985117                     5      39.2257063760894
481280896      2.54401224985117                     5      41.6857063760894
481280896      2.54401224985117                     5      44.1457063760894
481280896      2.54401224985117                     5      46.6057063760894
481280896      2.54401224985117                     5      49.0657063760894
481280896      4.68547524985117                     5      33.0757063760894
481280896      4.68547524985117                     5      35.5357063760894
481280896      4.68547524985117                     5      37.9957063760894
481280896      4.68547524985117                     5      40.4557063760894
481280896      4.68547524985117                     5      42.9157063760894
481280896      4.68547524985117                     5      45.3757063760894
481280896      4.68547524985117                     5      47.8357063760894
481280896      3.97176824985117                     5      34.3057063760894
481280896      3.97176824985117                     5      36.7657063760894
481280896      3.97176824985117                     5      39.2257063760894
481280896      3.97176824985117                     5      41.6857063760894
481280896      3.97176824985117                     5      44.1457063760894
481280896      3.97176824985117                     5      46.6057063760894
481280896      3.97176824985117                     5      49.0657063760894
481280896      6.11323124985117                     5      33.0757063760894
481280896      6.11323124985117                     5      35.5357063760894
481280896      6.11323124985117                     5      37.9957063760894
481280896      6.11323124985117                     5      40.4557063760894
481280896      6.11323124985117                     5      42.9157063760894
481280896      6.11323124985117                     5      45.3757063760894
481280896      6.11323124985117                     5      47.8357063760894
481280896      6.82693724985117                     5      34.3057063760894
481280896      6.82693724985117                     5      36.7657063760894
481280896      6.82693724985117                     5      39.2257063760894
481280896      6.82693724985117                     5      41.6857063760894
481280896      6.82693724985117                     5      44.1457063760894
481280896      6.82693724985117                     5      46.6057063760894
481280896      6.82693724985117                     5      49.0657063760894
481280896      8.96840024985117                     5      33.0757063760894
481280896      8.96840024985117                     5      35.5357063760894
481280896      8.96840024985117                     5      37.9957063760894
481280896      8.96840024985117                     5      40.4557063760894
481280896      8.96840024985117                     5      42.9157063760894
481280896      8.96840024985117                     5      45.3757063760894
481280896      8.96840024985117                     5      47.8357063760894
481280896      8.25469324985117                     5      34.3057063760894
481280896      8.25469324985117                     5      36.7657063760894
481280896      8.25469324985117                     5      39.2257063760894
481280896      8.25469324985117                     5      41.6857063760894
481280896      8.25469324985117                     5      44.1457063760894
481280896      8.25469324985117                     5      46.6057063760894
481280896      8.25469324985117                     5      49.0657063760894
481280896      10.3961562498512                     5      33.0757063760894
481280896      10.3961562498512                     5      35.5357063760894
481280896      10.3961562498512                     5      37.9957063760894
481280896      10.3961562498512                     5      40.4557063760894
481280896      10.3961562498512                     5      42.9157063760894
481280896      10.3961562498512                     5      45.3757063760894
481280896      10.3961562498512                     5      47.8357063760894
481280896      11.1098622498512                     5      34.3057063760894
481280896      11.1098622498512                     5      36.7657063760894
481280896      11.1098622498512                     5      39.2257063760894
481280896      11.1098622498512                     5      41.6857063760894
481280896      11.1098622498512                     5      44.1457063760894
481280896      11.1098622498512                     5      46.6057063760894
481280896      11.1098622498512                     5      49.0657063760894
481280896      13.2513252498512                     5      33.0757063760894
481280896      13.2513252498512                     5      35.5357063760894
481280896      13.2513252498512                     5      37.9957063760894