search structure

300 atoms
2  atom types

0   17.131700 xlo xhi
0   10.000000 ylo yhi
0   50.000000 zlo zhi

Atoms

1 2 15.395305 5.000000 34.306500
2 2 15.395305 5.000000 36.766500
3 2 15.395305 5.000000 39.226500
4 2 15.395305 5.000000 41.686500
5 2 15.395305 5.000000 44.146500
6 2 15.395305 5.000000 46.606500
7 2 15.395305 5.000000 49.066500
8 2 0.405068 5.000000 33.076500
9 2 0.405068 5.000000 35.536500
10 2 0.405068 5.000000 37.996500
11 2 0.405068 5.000000 40.456500
12 2 0.405068 5.000000 42.916500
13 2 0.405068 5.000000 45.376500
14 2 0.405068 5.000000 47.836500
15 2 16.823061 5.000000 34.306500
16 2 16.823061 5.000000 36.766500
17 2 16.823061 5.000000 39.226500
18 2 16.823061 5.000000 41.686500
19 2 16.823061 5.000000 44.146500
20 2 16.823061 5.000000 46.606500
21 2 16.823061 5.000000 49.066500
22 2 1.832824 5.000000 33.076500
23 2 1.832824 5.000000 35.536500
24 2 1.832824 5.000000 37.996500
25 2 1.832824 5.000000 40.456500
26 2 1.832824 5.000000 42.916500
27 2 1.832824 5.000000 45.376500
28 2 1.832824 5.000000 47.836500
29 2 2.546530 5.000000 34.306500
30 2 2.546530 5.000000 36.766500
31 1 2.546530 5.000000 39.226500
32 1 2.546530 5.000000 41.686500
33 1 2.546530 5.000000 44.146500
34 1 2.546530 5.000000 46.606500
35 1 2.546530 5.000000 49.066500
36 1 4.687993 5.000000 33.076500
37 1 4.687993 5.000000 35.536500
38 1 4.687993 5.000000 37.996500
39 1 4.687993 5.000000 40.456500
40 1 4.687993 5.000000 42.916500
41 1 4.687993 5.000000 45.376500
42 1 4.687993 5.000000 47.836500
43 1 3.974286 5.000000 34.306500
44 1 3.974286 5.000000 36.766500
45 1 3.974286 5.000000 39.226500
46 1 3.974286 5.000000 41.686500
47 1 3.974286 5.000000 44.146500
48 1 3.974286 5.000000 46.606500
49 1 3.974286 5.000000 49.066500
50 1 6.115749 5.000000 33.076500
51 1 6.115749 5.000000 35.536500
52 1 6.115749 5.000000 37.996500
53 1 6.115749 5.000000 40.456500
54 1 6.115749 5.000000 42.916500
55 1 6.115749 5.000000 45.376500
56 1 6.115749 5.000000 47.836500
57 1 6.829455 5.000000 34.306500
58 1 6.829455 5.000000 36.766500
59 1 6.829455 5.000000 39.226500
60 1 6.829455 5.000000 41.686500
61 1 6.829455 5.000000 44.146500
62 1 6.829455 5.000000 46.606500
63 1 6.829455 5.000000 49.066500
64 1 8.970918 5.000000 33.076500
65 1 8.970918 5.000000 35.536500
66 1 8.970918 5.000000 37.996500
67 1 8.970918 5.000000 40.456500
68 1 8.970918 5.000000 42.916500
69 1 8.970918 5.000000 45.376500
70 1 8.970918 5.000000 47.836500
71 1 8.257211 5.000000 34.306500
72 1 8.257211 5.000000 36.766500
73 1 8.257211 5.000000 39.226500
74 1 8.257211 5.000000 41.686500
75 1 8.257211 5.000000 44.146500
76 1 8.257211 5.000000 46.606500
77 1 8.257211 5.000000 49.066500
78 1 10.398674 5.000000 33.076500
79 1 10.398674 5.000000 35.536500
80 1 10.398674 5.000000 37.996500
81 1 10.398674 5.000000 40.456500
82 1 10.398674 5.000000 42.916500
83 1 10.398674 5.000000 45.376500
84 1 10.398674 5.000000 47.836500
85 1 11.112380 5.000000 34.306500
86 1 11.112380 5.000000 36.766500
87 1 11.112380 5.000000 39.226500
88 1 11.112380 5.000000 41.686500
89 1 11.112380 5.000000 44.146500
90 1 11.112380 5.000000 46.606500
91 1 11.112380 5.000000 49.066500
92 1 13.253843 5.000000 33.076500
93 1 13.253843 5.000000 35.536500
94 1 13.253843 5.000000 37.996500
95 1 13.253843 5.000000 40.456500
96 1 13.253843 5.000000 42.916500
97 1 13.253843 5.000000 45.376500
98 1 13.253843 5.000000 47.836500
99 1 12.540136 5.000000 34.306500
100 1 12.540136 5.000000 36.766500
101 1 12.540136 5.000000 39.226500
102 1 12.540136 5.000000 41.686500
103 1 12.540136 5.000000 44.146500
104 1 12.540136 5.000000 46.606500
105 1 12.540136 5.000000 49.066500
106 1 14.681599 5.000000 33.076500
107 1 14.681599 5.000000 35.536500
108 1 14.681599 5.000000 37.996500
109 1 14.681599 5.000000 40.456500
110 1 14.681599 5.000000 42.916500
111 1 14.681599 5.000000 45.376500
112 1 14.681599 5.000000 47.836500
113 2 14.825163 5.000000 50.054000
114 2 0.261333 5.000000 50.054000
115 2 1.978615 5.000000 50.055000
116 2 4.544258 5.000000 50.054000
117 2 6.261540 5.000000 50.055000
118 2 8.827183 5.000000 50.054000
119 2 10.544465 5.000000 50.055000
120 2 13.110108 5.000000 50.054000
121 1 -0.039917 5.000000 8.565500
122 1 -0.039917 5.000000 12.826500
123 1 -0.039917 5.000000 17.087500
124 1 -0.039917 5.000000 21.348000
125 1 -0.039917 5.000000 9.986000
126 1 -0.039917 5.000000 14.246500
127 1 -0.039917 5.000000 18.507500
128 1 -0.039917 5.000000 22.768500
129 1 15.868066 5.000000 10.696000
130 1 15.868066 5.000000 14.957000
131 1 15.868066 5.000000 19.217500
132 1 15.868066 5.000000 23.478500
133 1 15.868066 5.000000 7.855500
134 1 15.868066 5.000000 12.116500
135 1 15.868066 5.000000 16.377000
136 1 15.868066 5.000000 20.638000
137 1 14.644348 5.000000 8.565500
138 1 14.644348 5.000000 12.826500
139 1 14.644348 5.000000 17.087500
140 1 14.644348 5.000000 21.348000
141 1 13.420631 5.000000 10.696000
142 1 13.420631 5.000000 14.957000
143 1 13.420631 5.000000 19.217500
144 1 13.420631 5.000000 23.478500
145 1 14.644348 5.000000 9.986000
146 1 14.644348 5.000000 14.246500
147 1 14.644348 5.000000 18.507500
148 1 14.644348 5.000000 22.768500
149 1 13.420631 5.000000 7.855500
150 1 13.420631 5.000000 12.116500
151 1 13.420631 5.000000 16.377000
152 1 13.420631 5.000000 20.638000
153 1 12.197085 5.000000 8.565500
154 1 12.197085 5.000000 12.826500
155 1 12.197085 5.000000 17.087500
156 1 12.197085 5.000000 21.348000
157 1 10.973368 5.000000 10.696000
158 1 10.973368 5.000000 14.957000
159 1 10.973368 5.000000 19.217500
160 1 10.973368 5.000000 23.478500
161 1 12.197085 5.000000 9.986000
162 1 12.197085 5.000000 14.246500
163 1 12.197085 5.000000 18.507500
164 1 12.197085 5.000000 22.768500
165 1 10.973368 5.000000 7.855500
166 1 10.973368 5.000000 12.116500
167 1 10.973368 5.000000 16.377000
168 1 10.973368 5.000000 20.638000
169 1 9.749650 5.000000 8.565500
170 1 9.749650 5.000000 12.826500
171 1 9.749650 5.000000 17.087500
172 1 9.749650 5.000000 21.348000
173 1 8.525933 5.000000 10.696000
174 1 8.525933 5.000000 14.957000
175 1 8.525933 5.000000 19.217500
176 1 8.525933 5.000000 23.478500
177 1 9.749650 5.000000 9.986000
178 1 9.749650 5.000000 14.246500
179 1 9.749650 5.000000 18.507500
180 1 9.749650 5.000000 22.768500
181 1 8.525933 5.000000 7.855500
182 1 8.525933 5.000000 12.116500
183 1 8.525933 5.000000 16.377000
184 1 8.525933 5.000000 20.638000
185 1 7.302216 5.000000 8.565500
186 1 7.302216 5.000000 12.826500
187 1 7.302216 5.000000 17.087500
188 1 7.302216 5.000000 21.348000
189 1 6.078498 5.000000 10.696000
190 1 6.078498 5.000000 14.957000
191 1 6.078498 5.000000 19.217500
192 1 6.078498 5.000000 23.478500
193 1 7.302216 5.000000 9.986000
194 1 7.302216 5.000000 14.246500
195 1 7.302216 5.000000 18.507500
196 1 7.302216 5.000000 22.768500
197 1 6.078498 5.000000 7.855500
198 1 6.078498 5.000000 12.116500
199 1 6.078498 5.000000 16.377000
200 1 6.078498 5.000000 20.638000
201 1 4.854781 5.000000 8.565500
202 1 4.854781 5.000000 12.826500
203 1 4.854781 5.000000 17.087500
204 1 4.854781 5.000000 21.348000
205 1 3.631235 5.000000 10.696000
206 1 3.631235 5.000000 14.957000
207 1 3.631235 5.000000 19.217500
208 1 3.631235 5.000000 23.478500
209 1 4.854781 5.000000 9.986000
210 1 4.854781 5.000000 14.246500
211 1 4.854781 5.000000 18.507500
212 1 4.854781 5.000000 22.768500
213 1 3.631235 5.000000 7.855500
214 1 3.631235 5.000000 12.116500
215 1 3.631235 5.000000 16.377000
216 1 3.631235 5.000000 20.638000
217 1 2.407518 5.000000 8.565500
218 1 2.407518 5.000000 12.826500
219 1 2.407518 5.000000 17.087500
220 1 2.407518 5.000000 21.348000
221 1 1.183800 5.000000 10.696000
222 1 1.183800 5.000000 14.957000
223 1 1.183800 5.000000 19.217500
224 1 1.183800 5.000000 23.478500
225 1 2.407518 5.000000 9.986000
226 1 2.407518 5.000000 14.246500
227 1 2.407518 5.000000 18.507500
228 1 2.407518 5.000000 22.768500
229 1 1.183800 5.000000 7.855500
230 1 1.183800 5.000000 12.116500
231 1 1.183800 5.000000 16.377000
232 1 1.183800 5.000000 20.638000
233 2 15.865667 5.000000 6.715500
234 2 13.423030 5.000000 6.715500
235 2 10.975766 5.000000 6.715500
236 2 8.528332 5.000000 6.715500
237 2 6.080897 5.000000 6.715500
238 2 3.633634 5.000000 6.715500
239 2 1.181402 5.000000 6.715500
240 2 4.624022 1.026619 27.960853
241 2 1.502166 2.576487 24.360137
242 2 9.380151 3.391278 24.259017
243 2 12.362787 3.710433 26.322296
244 2 12.942401 2.322405 23.500000
245 2 9.099370 3.317498 24.885623
246 2 15.092438 4.919410 23.500000
247 2 13.013091 6.592905 23.545048
248 2 2.307275 5.742815 24.157419
249 2 16.034649 0.657359 29.448353
250 2 11.152119 2.218513 27.494117
251 2 1.372553 3.597848 27.345716
252 2 6.407988 4.753243 26.548190
253 2 15.999028 8.914313 26.242224
254 2 15.176809 8.741189 26.712486
255 2 1.501392 9.334583 24.670163
256 2 8.198686 9.609133 27.177959
257 2 7.488297 6.733324 28.194939
258 2 7.503350 1.157383 31.566778
259 2 3.648631 4.903313 29.865703
260 2 4.245348 5.314386 31.267038
261 2 9.277328 0.093888 28.761279
262 2 7.530937 2.946499 30.377654
263 2 8.042681 9.365677 32.655518
264 2 11.812182 3.283873 32.530934
265 2 3.714382 3.741774 29.819572
266 2 15.088563 3.580401 31.211475
267 2 4.675854 7.454783 30.928601
268 1 10.955204 2.769630 25.699388
269 1 7.685563 4.675510 23.649283
270 1 7.569068 6.306310 23.892362
271 1 13.822753 0.066692 25.620558
272 1 11.771026 0.556268 23.500000
273 1 0.580716 0.388495 25.088074
274 1 12.755066 0.886837 23.569185
275 1 14.614269 4.479414 26.321312
276 1 12.817002 6.352029 24.861006
277 1 14.123060 9.505793 25.400210
278 1 14.867183 1.106262 25.345706
279 1 16.632332 1.901518 28.320150
280 1 2.751111 2.350745 29.267448
281 1 2.361301 0.929089 28.483064
282 1 2.128371 3.663932 25.625665
283 1 0.595226 7.479694 29.362138
284 1 1.872572 2.197075 26.749126
285 1 15.146725 2.454714 26.478276
286 1 7.037504 6.439346 28.265018
287 1 11.313752 9.866175 26.793799
288 1 12.544774 8.597185 26.617491
289 1 10.644840 9.472029 26.231383
290 1 7.266646 0.970287 32.147039
291 1 11.836953 1.836914 29.410860
292 1 9.223558 6.060659 30.051857
293 1 15.132109 7.054070 33.000000
294 1 16.157028 9.160194 33.000000
295 1 14.207296 3.506400 28.724687
296 1 9.163035 2.784021 31.346936
297 1 15.371257 1.059501 32.762862
298 1 16.527183 1.727729 31.913939
299 1 15.415686 5.301454 33.000000
300 1 13.420458 0.761279 33.000000
