300
Atoms. Timestep: 0
59061152              3.973848                     5             34.366962
59061152              3.973848                     5             36.826962
59061152              3.973848                     5             39.286962
59061152              3.973848                     5             41.746962
59061152              3.973848                     5             44.206962
59061152              3.973848                     5             46.666962
59061152              3.973848                     5             49.126962
59061152               6.11531                     5             33.136962
59061152               6.11531                     5             35.596962
59061152               6.11531                     5             38.056962
59061152               6.11531                     5             40.516962
59061152               6.11531                     5             42.976962
59061152               6.11531                     5             45.436962
59061152               6.11531                     5             47.896962
59061152              5.401604                     5             34.366962
59061152              5.401604                     5             36.826962
59061152              5.401604                     5             39.286962
59061152              5.401604                     5             41.746962
59061152              5.401604                     5             44.206962
59061152              5.401604                     5             46.666962
59061152              5.401604                     5             49.126962
59061152              7.543066                     5             33.136962
59061152              7.543066                     5             35.596962
59061152              7.543066                     5             38.056962
59061152              7.543066                     5             40.516962
59061152              7.543066                     5             42.976962
59061152              7.543066                     5             45.436962
59061152              7.543066                     5             47.896962
59061152              8.256773                     5             34.366962
59061152              8.256773                     5             36.826962
59061120              8.256773                     5             39.286962
59061120              8.256773                     5             41.746962
59061120              8.256773                     5             44.206962
59061120              8.256773                     5             46.666962
59061120              8.256773                     5             49.126962
59061120             10.398235                     5             33.136962
59061120             10.398235                     5             35.596962
59061120             10.398235                     5             38.056962
59061120             10.398235                     5             40.516962
59061120             10.398235                     5             42.976962
59061120             10.398235                     5             45.436962
59061120             10.398235                     5             47.896962
59061120              9.684529                     5             34.366962
59061120              9.684529                     5             36.826962
59061120              9.684529                     5             39.286962
59061120              9.684529                     5             41.746962
59061120              9.684529                     5             44.206962
59061120              9.684529                     5             46.666962
59061120              9.684529                     5             49.126962
59061120             11.825991                     5             33.136962
59061120             11.825991                     5             35.596962
59061120             11.825991                     5             38.056962
59061120             11.825991                     5             40.516962
59061120             11.825991                     5             42.976962
59061120             11.825991                     5             45.436962
59061120             11.825991                     5             47.896962
59061120             12.539698                     5             34.366962
59061120             12.539698                     5             36.826962
59061120             12.539698                     5             39.286962
59061120             12.539698                     5             41.746962
59061120             12.539698                     5             44.206962
59061120             12.539698                     5             46.666962
59061120             12.539698                     5             49.126962
59061120              14.68116                     5             33.136962
59061120              14.68116                     5             35.596962
59061120              14.68116                     5             38.056962
59061120              14.68116                     5             40.516962
59061120              14.68116                     5             42.976962
59061120              14.68116                     5             45.436962
59061120              14.68116                     5             47.896962
59061120             13.967454                     5             34.366962
59061120             13.967454                     5             36.826962
59061120             13.967454                     5             39.286962
59061120             13.967454                     5             41.746962
59061120             13.967454                     5             44.206962
59061120             13.967454                     5             46.666962
59061120             13.967454                     5             49.126962
59061120             16.108916                     5             33.136962
59061120             16.108916                     5             35.596962
59061120             16.108916                     5             38.056962
59061120             16.108916                     5             40.516962
59061120             16.108916                     5             42.976962
59061120             16.108916                     5             45.436962
59061120             16.108916                     5             47.896962
59061120             16.822623                     5             34.366962
59061120             16.822623                     5             36.826962
59061120             16.822623                     5             39.286962
59061120             16.822623                     5             41.746962
59061120             16.822623                     5             44.206962
59061120             16.822623                     5             46.666962
59061120             16.822623                     5             49.126962
59061120              1.832385                     5             33.136962
59061120              1.832385                     5             35.596962
59061120              1.832385                     5             38.056962
59061120              1.832385                     5             40.516962
59061120              1.832385                     5             42.976962
59061120              1.832385                     5             45.436962
59061120              1.832385                     5             47.896962
59061120              1.118679                     5             34.366962
59061120              1.118679                     5             36.826962
59061120              1.118679                     5             39.286962
59061120              1.118679                     5             41.746962
59061120              1.118679                     5             44.206962
59061120              1.118679                     5             46.666962
59061120              1.118679                     5             49.126962
59061120              3.260141                     5             33.136962
59061120              3.260141                     5             35.596962
59061120              3.260141                     5             38.056962
59061120              3.260141                     5             40.516962
59061120              3.260141                     5             42.976962
59061120              3.260141                     5             45.436962
59061120              3.260141                     5             47.896962
59061152              3.403705                     5     0.114462000000003
59061152              5.971575                     5     0.114462000000003
59061152              7.688857                     5     0.115462000000001
59061152               10.2545                     5     0.114462000000003
59061152             11.971782                     5     0.115462000000001
59061152             14.537425                     5     0.114462000000003
59061152             16.254707                     5     0.115462000000001
59061152               1.68865                     5     0.114462000000003
59061120             17.091783                     5                8.5655
59061120             17.091783                     5               12.8265
59061120             17.091783                     5               17.0875
59061120             17.091783                     5                21.348
59061120             17.091783                     5                 9.986
59061120             17.091783                     5               14.2465
59061120             17.091783                     5               18.5075
59061120             17.091783                     5               22.7685
59061120             15.868066                     5                10.696
59061120             15.868066                     5                14.957
59061120             15.868066                     5               19.2175
59061120             15.868066                     5               23.4785
59061120             15.868066                     5                7.8555
59061120             15.868066                     5               12.1165
59061120             15.868066                     5                16.377
59061120             15.868066                     5                20.638
59061120             14.644348                     5                8.5655
59061120             14.644348                     5               12.8265
59061120             14.644348                     5               17.0875
59061120             14.644348                     5                21.348
59061120             13.420631                     5                10.696
59061120             13.420631                     5                14.957
59061120             13.420631                     5               19.2175
59061120             13.420631                     5               23.4785
59061120             14.644348                     5                 9.986
59061120             14.644348                     5               14.2465
59061120             14.644348                     5               18.5075
59061120             14.644348                     5               22.7685
59061120             13.420631                     5                7.8555
59061120             13.420631                     5               12.1165
59061120             13.420631                     5                16.377
59061120             13.420631                     5                20.638
59061120             12.197085                     5                8.5655
59061120             12.197085                     5               12.8265
59061120             12.197085                     5               17.0875
59061120             12.197085                     5                21.348
59061120             10.973368                     5                10.696
59061120             10.973368                     5                14.957
59061120             10.973368                     5               19.2175
59061120             10.973368                     5               23.4785
59061120             12.197085                     5                 9.986
59061120             12.197085                     5               14.2465
59061120             12.197085                     5               18.5075
59061120             12.197085                     5               22.7685
59061120             10.973368                     5                7.8555
59061120             10.973368                     5               12.1165
59061120             10.973368                     5                16.377
59061120             10.973368                     5                20.638
59061120               9.74965                     5                8.5655
59061120               9.74965                     5               12.8265
59061120               9.74965                     5               17.0875
59061120               9.74965                     5                21.348
59061120              8.525933                     5                10.696
59061120              8.525933                     5                14.957
59061120              8.525933                     5               19.2175
59061120              8.525933                     5               23.4785
59061120               9.74965                     5                 9.986
59061120               9.74965                     5               14.2465
59061120               9.74965                     5               18.5075
59061120               9.74965                     5               22.7685
59061120              8.525933                     5                7.8555
59061120              8.525933                     5               12.1165
59061120              8.525933                     5                16.377
59061120              8.525933                     5                20.638
59061120              7.302216                     5                8.5655
59061120              7.302216                     5               12.8265
59061120              7.302216                     5               17.0875
59061120              7.302216                     5                21.348
59061120              6.078498                     5                10.696
59061120              6.078498                     5                14.957
59061120              6.078498                     5               19.2175
59061120              6.078498                     5               23.4785
59061120              7.302216                     5                 9.986
59061120              7.302216                     5               14.2465
59061120              7.302216                     5               18.5075
59061120              7.302216                     5               22.7685
59061120              6.078498                     5                7.8555
59061120              6.078498                     5               12.1165
59061120              6.078498                     5                16.377
59061120              6.078498                     5                20.638
59061120              4.854781                     5                8.5655
59061120              4.854781                     5               12.8265
59061120              4.854781                     5               17.0875
59061120              4.854781                     5                21.348
59061120              3.631235                     5                10.696
59061120              3.631235                     5                14.957
59061120              3.631235                     5               19.2175
59061120              3.631235                     5               23.4785
59061120              4.854781                     5                 9.986
59061120              4.854781                     5               14.2465
59061120              4.854781                     5               18.5075
59061120              4.854781                     5               22.7685
59061120              3.631235                     5                7.8555
59061120              3.631235                     5               12.1165
59061120              3.631235                     5                16.377
59061120              3.631235                     5                20.638
59061120              2.407518                     5                8.5655
59061120              2.407518                     5               12.8265
59061120              2.407518                     5               17.0875
59061120              2.407518                     5                21.348
59061120                1.1838                     5                10.696
59061120                1.1838                     5                14.957
59061120                1.1838                     5               19.2175
59061120                1.1838                     5               23.4785
59061120              2.407518                     5                 9.986
59061120              2.407518                     5               14.2465
59061120              2.407518                     5               18.5075
59061120              2.407518                     5               22.7685
59061120                1.1838                     5                7.8555
59061120                1.1838                     5               12.1165
59061120                1.1838                     5                16.377
59061120                1.1838                     5                20.638
59061152             15.865667                     5                6.7155
59061152              13.42303                     5                6.7155
59061152             10.975766                     5                6.7155
59061152              8.528332                     5                6.7155
59061152              6.080897                     5                6.7155
59061152              3.633634                     5                6.7155
59061152              1.181402                     5                6.7155
59061152              5.257837              1.509259             25.657265
59061152             10.325964              7.185214             24.582132
59061152              5.047025              6.770396              27.24028
59061152              7.669361              5.545978             26.584462
59061152              5.306149              2.799186             26.614534
59061152              8.544906              2.833638             27.205349
59061152              4.015389              6.074436             28.256539
59061152              6.512636               4.93311              26.25455
59061152             17.083676              4.668801             26.982514
59061152              5.991859              2.982432             30.792438
59061152              6.235279              1.870855             30.799682
59061152              0.046464              4.953027             25.030203
59061152              1.019061              2.119434              29.67215
59061152             15.076232              8.324796             27.981974
59061152              9.003907              1.346774             27.777488
59061152              5.038803              2.106138             30.825735
59061152              9.390852              9.604863             28.299988
59061152             15.958951              7.413573             29.211059
59061152              7.739779              3.142323             30.535418
59061152              6.778205               2.90128             31.605911
59061152              4.686453              4.506017             32.026665
59061152              1.171388              0.709868             31.304628
59061152              3.765904              9.111584             30.071599
59061152               4.71593              7.569404             31.687392
59061152             11.607815              9.645465             33.060462
59061152             13.681993              7.576474             32.334468
59061152              7.566993              4.057459             30.944805
59061152             16.209187              8.929828             29.672049
59061120              7.018531              9.998062             27.396099
59061120             11.721203              6.003669             23.877362
59061120             11.889098              6.683774             24.307217
59061120              7.649444              8.898704             24.649909
59061120             15.130311               4.32021             26.143268
59061120             11.469976              9.609434              24.77419
59061120              7.747417              8.076384             23.799984
59061120             14.663944              5.507997                  23.5
59061120              9.234747              6.941523             23.908465
59061120             12.156849              8.928791                  23.5
59061120              3.347132              0.297017             23.983843
59061120              0.668171                9.1066             28.245669
59061120              8.204635                9.0179                  23.5
59061120              9.725905              8.088678             27.403883
59061120              8.870482              8.664123             28.184307
59061120              8.468699              9.304389             30.551412
59061120               6.16454              9.845284             26.746379
59061120              4.430333              1.049752             29.922396
59061120             11.348236              1.603919             28.322264
59061120              6.628715              1.594816             25.450969
59061120              4.356455              2.661583             27.582715
59061120             16.499754              0.251442             25.300242
59061120              8.405116              1.860448             28.059867
59061120              1.197044              4.396035             30.877649
59061120              7.367541              1.787721             33.060462
59061120              5.474318              1.825562             32.704269
59061120              12.64336              7.539265             32.055217
59061120             15.228588              3.926708             28.408979
59061120             12.814785              2.392982             33.060462
59061120              6.674359              4.393581             33.060462
59061120              9.789194              7.754906              27.20756
59061120              1.368008              4.884499              27.70655
59061120             10.465481              8.766925             28.600494
300
Atoms. Timestep: 10
59061152      3.97287717063708                     5      34.3675801123413
59061152      3.97287717063708                     5      36.8275801123413
59061152      3.97287717063708                     5      39.2875801123413
59061152      3.97287717063708                     5      41.7475801123413
59061152      3.97287717063708                     5      44.2075801123413
59061152      3.97287717063708                     5      46.6675801123413
59061152      3.97287717063708                     5      49.1275801123413
59061152      6.11433917063708                     5      33.1375801123413
59061152      6.11433917063708                     5      35.5975801123413
59061152      6.11433917063708                     5      38.0575801123413
59061152      6.11433917063708                     5      40.5175801123413
59061152      6.11433917063708                     5      42.9775801123413
59061152      6.11433917063708                     5      45.4375801123413
59061152      6.11433917063708                     5      47.8975801123413
59061152      5.40063317063708                     5      34.3675801123413
59061152      5.40063317063708                     5      36.8275801123413
59061152      5.40063317063708                     5      39.2875801123413
59061152      5.40063317063708                     5      41.7475801123413
59061152      5.40063317063708                     5      44.2075801123413
59061152      5.40063317063708                     5      46.6675801123413
59061152      5.40063317063708                     5      49.1275801123413
59061152      7.54209517063708                     5      33.1375801123413
59061152      7.54209517063708                     5      35.5975801123413
59061152      7.54209517063708                     5      38.0575801123413
59061152      7.54209517063708                     5      40.5175801123413
59061152      7.54209517063708                     5      42.9775801123413
59061152      7.54209517063708                     5      45.4375801123413
59061152      7.54209517063708                     5      47.8975801123413
59061152      8.25580217063708                     5      34.3675801123413
59061152      8.25580217063708                     5      36.8275801123413
59061120      8.25580217063708                     5      39.2875801123413
59061120      8.25580217063708                     5      41.7475801123413
59061120      8.25580217063708                     5      44.2075801123413
59061120      8.25580217063708                     5      46.6675801123413
59061120      8.25580217063708                     5      49.1275801123413
59061120      10.3972641706371                     5      33.1375801123413
59061120      10.3972641706371                     5      35.5975801123413
59061120      10.3972641706371                     5      38.0575801123413
59061120      10.3972641706371                     5      40.5175801123413
59061120      10.3972641706371                     5      42.9775801123413
59061120      10.3972641706371                     5      45.4375801123413
59061120      10.3972641706371                     5      47.8975801123413
59061120      9.68355817063708                     5      34.3675801123413
59061120      9.68355817063708                     5      36.8275801123413
59061120      9.68355817063708                     5      39.2875801123413
59061120      9.68355817063708                     5      41.7475801123413
59061120      9.68355817063708                     5      44.2075801123413
59061120      9.68355817063708                     5      46.6675801123413
59061120      9.68355817063708                     5      49.1275801123413
59061120      11.8250201706371                     5      33.1375801123413
59061120      11.8250201706371                     5      35.5975801123413
59061120      11.8250201706371                     5      38.0575801123413
59061120      11.8250201706371                     5      40.5175801123413
59061120      11.8250201706371                     5      42.9775801123413
59061120      11.8250201706371                     5      45.4375801123413
59061120      11.8250201706371                     5      47.8975801123413
59061120      12.5387271706371                     5      34.3675801123413
59061120      12.5387271706371                     5      36.8275801123413
59061120      12.5387271706371                     5      39.2875801123413
59061120      12.5387271706371                     5      41.7475801123413
59061120      12.5387271706371                     5      44.2075801123413
59061120      12.5387271706371                     5      46.6675801123413
59061120      12.5387271706371                     5      49.1275801123413
59061120      14.6801891706371                     5      33.1375801123413
59061120      14.6801891706371                     5      35.5975801123413
59061120      14.6801891706371                     5      38.0575801123413
59061120      14.6801891706371                     5      40.5175801123413
59061120      14.6801891706371                     5      42.9775801123413
59061120      14.6801891706371                     5      45.4375801123413
59061120      14.6801891706371                     5      47.8975801123413
59061120      13.9664831706371                     5      34.3675801123413
59061120      13.9664831706371                     5      36.8275801123413
59061120      13.9664831706371                     5      39.2875801123413
59061120      13.9664831706371                     5      41.7475801123413
59061120      13.9664831706371                     5      44.2075801123413
59061120      13.9664831706371                     5      46.6675801123413
59061120      13.9664831706371                     5      49.1275801123413
59061120      16.1079451706371                     5      33.1375801123413
59061120      16.1079451706371                     5      35.5975801123413
59061120      16.1079451706371                     5      38.0575801123413
59061120      16.1079451706371                     5      40.5175801123413
59061120      16.1079451706371                     5      42.9775801123413
59061120      16.1079451706371                     5      45.4375801123413
59061120      16.1079451706371                     5      47.8975801123413
59061120      16.8216521706371                     5      34.3675801123413
59061120      16.8216521706371                     5      36.8275801123413
59061120      16.8216521706371                     5      39.2875801123413
59061120      16.8216521706371                     5      41.7475801123413
59061120      16.8216521706371                     5      44.2075801123413
59061120      16.8216521706371                     5      46.6675801123413
59061120      16.8216521706371                     5      49.1275801123413
59061120      1.83141417063708                     5      33.1375801123413
59061120      1.83141417063708                     5      35.5975801123413
59061120      1.83141417063708                     5      38.0575801123413
59061120      1.83141417063708                     5      40.5175801123413
59061120      1.83141417063708                     5      42.9775801123413
59061120      1.83141417063708                     5      45.4375801123413
59061120      1.83141417063708                     5      47.8975801123413
59061120      1.11770817063708                     5      34.3675801123413