search structure

300 atoms
2  atom types

0   17.131700 xlo xhi
0   10.000000 ylo yhi
0   50.000000 zlo zhi

Atoms

1 2 3.973848 5.000000 34.366962
2 2 3.973848 5.000000 36.826962
3 2 3.973848 5.000000 39.286962
4 2 3.973848 5.000000 41.746962
5 2 3.973848 5.000000 44.206962
6 2 3.973848 5.000000 46.666962
7 2 3.973848 5.000000 49.126962
8 2 6.115310 5.000000 33.136962
9 2 6.115310 5.000000 35.596962
10 2 6.115310 5.000000 38.056962
11 2 6.115310 5.000000 40.516962
12 2 6.115310 5.000000 42.976962
13 2 6.115310 5.000000 45.436962
14 2 6.115310 5.000000 47.896962
15 2 5.401604 5.000000 34.366962
16 2 5.401604 5.000000 36.826962
17 2 5.401604 5.000000 39.286962
18 2 5.401604 5.000000 41.746962
19 2 5.401604 5.000000 44.206962
20 2 5.401604 5.000000 46.666962
21 2 5.401604 5.000000 49.126962
22 2 7.543066 5.000000 33.136962
23 2 7.543066 5.000000 35.596962
24 2 7.543066 5.000000 38.056962
25 2 7.543066 5.000000 40.516962
26 2 7.543066 5.000000 42.976962
27 2 7.543066 5.000000 45.436962
28 2 7.543066 5.000000 47.896962
29 2 8.256773 5.000000 34.366962
30 2 8.256773 5.000000 36.826962
31 1 8.256773 5.000000 39.286962
32 1 8.256773 5.000000 41.746962
33 1 8.256773 5.000000 44.206962
34 1 8.256773 5.000000 46.666962
35 1 8.256773 5.000000 49.126962
36 1 10.398235 5.000000 33.136962
37 1 10.398235 5.000000 35.596962
38 1 10.398235 5.000000 38.056962
39 1 10.398235 5.000000 40.516962
40 1 10.398235 5.000000 42.976962
41 1 10.398235 5.000000 45.436962
42 1 10.398235 5.000000 47.896962
43 1 9.684529 5.000000 34.366962
44 1 9.684529 5.000000 36.826962
45 1 9.684529 5.000000 39.286962
46 1 9.684529 5.000000 41.746962
47 1 9.684529 5.000000 44.206962
48 1 9.684529 5.000000 46.666962
49 1 9.684529 5.000000 49.126962
50 1 11.825991 5.000000 33.136962
51 1 11.825991 5.000000 35.596962
52 1 11.825991 5.000000 38.056962
53 1 11.825991 5.000000 40.516962
54 1 11.825991 5.000000 42.976962
55 1 11.825991 5.000000 45.436962
56 1 11.825991 5.000000 47.896962
57 1 12.539698 5.000000 34.366962
58 1 12.539698 5.000000 36.826962
59 1 12.539698 5.000000 39.286962
60 1 12.539698 5.000000 41.746962
61 1 12.539698 5.000000 44.206962
62 1 12.539698 5.000000 46.666962
63 1 12.539698 5.000000 49.126962
64 1 14.681160 5.000000 33.136962
65 1 14.681160 5.000000 35.596962
66 1 14.681160 5.000000 38.056962
67 1 14.681160 5.000000 40.516962
68 1 14.681160 5.000000 42.976962
69 1 14.681160 5.000000 45.436962
70 1 14.681160 5.000000 47.896962
71 1 13.967454 5.000000 34.366962
72 1 13.967454 5.000000 36.826962
73 1 13.967454 5.000000 39.286962
74 1 13.967454 5.000000 41.746962
75 1 13.967454 5.000000 44.206962
76 1 13.967454 5.000000 46.666962
77 1 13.967454 5.000000 49.126962
78 1 16.108916 5.000000 33.136962
79 1 16.108916 5.000000 35.596962
80 1 16.108916 5.000000 38.056962
81 1 16.108916 5.000000 40.516962
82 1 16.108916 5.000000 42.976962
83 1 16.108916 5.000000 45.436962
84 1 16.108916 5.000000 47.896962
85 1 16.822623 5.000000 34.366962
86 1 16.822623 5.000000 36.826962
87 1 16.822623 5.000000 39.286962
88 1 16.822623 5.000000 41.746962
89 1 16.822623 5.000000 44.206962
90 1 16.822623 5.000000 46.666962
91 1 16.822623 5.000000 49.126962
92 1 1.832385 5.000000 33.136962
93 1 1.832385 5.000000 35.596962
94 1 1.832385 5.000000 38.056962
95 1 1.832385 5.000000 40.516962
96 1 1.832385 5.000000 42.976962
97 1 1.832385 5.000000 45.436962
98 1 1.832385 5.000000 47.896962
99 1 1.118679 5.000000 34.366962
100 1 1.118679 5.000000 36.826962
101 1 1.118679 5.000000 39.286962
102 1 1.118679 5.000000 41.746962
103 1 1.118679 5.000000 44.206962
104 1 1.118679 5.000000 46.666962
105 1 1.118679 5.000000 49.126962
106 1 3.260141 5.000000 33.136962
107 1 3.260141 5.000000 35.596962
108 1 3.260141 5.000000 38.056962
109 1 3.260141 5.000000 40.516962
110 1 3.260141 5.000000 42.976962
111 1 3.260141 5.000000 45.436962
112 1 3.260141 5.000000 47.896962
113 2 3.403705 5.000000 50.114462
114 2 5.971575 5.000000 50.114462
115 2 7.688857 5.000000 50.115462
116 2 10.254500 5.000000 50.114462
117 2 11.971782 5.000000 50.115462
118 2 14.537425 5.000000 50.114462
119 2 16.254707 5.000000 50.115462
120 2 1.688650 5.000000 50.114462
121 1 -0.039917 5.000000 8.565500
122 1 -0.039917 5.000000 12.826500
123 1 -0.039917 5.000000 17.087500
124 1 -0.039917 5.000000 21.348000
125 1 -0.039917 5.000000 9.986000
126 1 -0.039917 5.000000 14.246500
127 1 -0.039917 5.000000 18.507500
128 1 -0.039917 5.000000 22.768500
129 1 15.868066 5.000000 10.696000
130 1 15.868066 5.000000 14.957000
131 1 15.868066 5.000000 19.217500
132 1 15.868066 5.000000 23.478500
133 1 15.868066 5.000000 7.855500
134 1 15.868066 5.000000 12.116500
135 1 15.868066 5.000000 16.377000
136 1 15.868066 5.000000 20.638000
137 1 14.644348 5.000000 8.565500
138 1 14.644348 5.000000 12.826500
139 1 14.644348 5.000000 17.087500
140 1 14.644348 5.000000 21.348000
141 1 13.420631 5.000000 10.696000
142 1 13.420631 5.000000 14.957000
143 1 13.420631 5.000000 19.217500
144 1 13.420631 5.000000 23.478500
145 1 14.644348 5.000000 9.986000
146 1 14.644348 5.000000 14.246500
147 1 14.644348 5.000000 18.507500
148 1 14.644348 5.000000 22.768500
149 1 13.420631 5.000000 7.855500
150 1 13.420631 5.000000 12.116500
151 1 13.420631 5.000000 16.377000
152 1 13.420631 5.000000 20.638000
153 1 12.197085 5.000000 8.565500
154 1 12.197085 5.000000 12.826500
155 1 12.197085 5.000000 17.087500
156 1 12.197085 5.000000 21.348000
157 1 10.973368 5.000000 10.696000
158 1 10.973368 5.000000 14.957000
159 1 10.973368 5.000000 19.217500
160 1 10.973368 5.000000 23.478500
161 1 12.197085 5.000000 9.986000
162 1 12.197085 5.000000 14.246500
163 1 12.197085 5.000000 18.507500
164 1 12.197085 5.000000 22.768500
165 1 10.973368 5.000000 7.855500
166 1 10.973368 5.000000 12.116500
167 1 10.973368 5.000000 16.377000
168 1 10.973368 5.000000 20.638000
169 1 9.749650 5.000000 8.565500
170 1 9.749650 5.000000 12.826500
171 1 9.749650 5.000000 17.087500
172 1 9.749650 5.000000 21.348000
173 1 8.525933 5.000000 10.696000
174 1 8.525933 5.000000 14.957000
175 1 8.525933 5.000000 19.217500
176 1 8.525933 5.000000 23.478500
177 1 9.749650 5.000000 9.986000
178 1 9.749650 5.000000 14.246500
179 1 9.749650 5.000000 18.507500
180 1 9.749650 5.000000 22.768500
181 1 8.525933 5.000000 7.855500
182 1 8.525933 5.000000 12.116500
183 1 8.525933 5.000000 16.377000
184 1 8.525933 5.000000 20.638000
185 1 7.302216 5.000000 8.565500
186 1 7.302216 5.000000 12.826500
187 1 7.302216 5.000000 17.087500
188 1 7.302216 5.000000 21.348000
189 1 6.078498 5.000000 10.696000
190 1 6.078498 5.000000 14.957000
191 1 6.078498 5.000000 19.217500
192 1 6.078498 5.000000 23.478500
193 1 7.302216 5.000000 9.986000
194 1 7.302216 5.000000 14.246500
195 1 7.302216 5.000000 18.507500
196 1 7.302216 5.000000 22.768500
197 1 6.078498 5.000000 7.855500
198 1 6.078498 5.000000 12.116500
199 1 6.078498 5.000000 16.377000
200 1 6.078498 5.000000 20.638000
201 1 4.854781 5.000000 8.565500
202 1 4.854781 5.000000 12.826500
203 1 4.854781 5.000000 17.087500
204 1 4.854781 5.000000 21.348000
205 1 3.631235 5.000000 10.696000
206 1 3.631235 5.000000 14.957000
207 1 3.631235 5.000000 19.217500
208 1 3.631235 5.000000 23.478500
209 1 4.854781 5.000000 9.986000
210 1 4.854781 5.000000 14.246500
211 1 4.854781 5.000000 18.507500
212 1 4.854781 5.000000 22.768500
213 1 3.631235 5.000000 7.855500
214 1 3.631235 5.000000 12.116500
215 1 3.631235 5.000000 16.377000
216 1 3.631235 5.000000 20.638000
217 1 2.407518 5.000000 8.565500
218 1 2.407518 5.000000 12.826500
219 1 2.407518 5.000000 17.087500
220 1 2.407518 5.000000 21.348000
221 1 1.183800 5.000000 10.696000
222 1 1.183800 5.000000 14.957000
223 1 1.183800 5.000000 19.217500
224 1 1.183800 5.000000 23.478500
225 1 2.407518 5.000000 9.986000
226 1 2.407518 5.000000 14.246500
227 1 2.407518 5.000000 18.507500
228 1 2.407518 5.000000 22.768500
229 1 1.183800 5.000000 7.855500
230 1 1.183800 5.000000 12.116500
231 1 1.183800 5.000000 16.377000
232 1 1.183800 5.000000 20.638000
233 2 15.865667 5.000000 6.715500
234 2 13.423030 5.000000 6.715500
235 2 10.975766 5.000000 6.715500
236 2 8.528332 5.000000 6.715500
237 2 6.080897 5.000000 6.715500
238 2 3.633634 5.000000 6.715500
239 2 1.181402 5.000000 6.715500
240 2 5.257837 1.509259 25.657265
241 2 10.325964 7.185214 24.582132
242 2 5.047025 6.770396 27.240280
243 2 7.669361 5.545978 26.584462
244 2 5.306149 2.799186 26.614534
245 2 8.544906 2.833638 27.205349
246 2 4.015389 6.074436 28.256539
247 2 6.512636 4.933110 26.254550
248 2 17.083676 4.668801 26.982514
249 2 5.991859 2.982432 30.792438
250 2 6.235279 1.870855 30.799682
251 2 0.046464 4.953027 25.030203
252 2 1.019061 2.119434 29.672150
253 2 15.076232 8.324796 27.981974
254 2 9.003907 1.346774 27.777488
255 2 5.038803 2.106138 30.825735
256 2 9.390852 9.604863 28.299988
257 2 15.958951 7.413573 29.211059
258 2 7.739779 3.142323 30.535418
259 2 6.778205 2.901280 31.605911
260 2 4.686453 4.506017 32.026665
261 2 1.171388 0.709868 31.304628
262 2 3.765904 9.111584 30.071599
263 2 4.715930 7.569404 31.687392
264 2 11.607815 9.645465 33.060462
265 2 13.681993 7.576474 32.334468
266 2 7.566993 4.057459 30.944805
267 2 16.209187 8.929828 29.672049
268 1 7.018531 9.998062 27.396099
269 1 11.721203 6.003669 23.877362
270 1 11.889098 6.683774 24.307217
271 1 7.649444 8.898704 24.649909
272 1 15.130311 4.320210 26.143268
273 1 11.469976 9.609434 24.774190
274 1 7.747417 8.076384 23.799984
275 1 14.663944 5.507997 23.500000
276 1 9.234747 6.941523 23.908465
277 1 12.156849 8.928791 23.500000
278 1 3.347132 0.297017 23.983843
279 1 0.668171 9.106600 28.245669
280 1 8.204635 9.017900 23.500000
281 1 9.725905 8.088678 27.403883
282 1 8.870482 8.664123 28.184307
283 1 8.468699 9.304389 30.551412
284 1 6.164540 9.845284 26.746379
285 1 4.430333 1.049752 29.922396
286 1 11.348236 1.603919 28.322264
287 1 6.628715 1.594816 25.450969
288 1 4.356455 2.661583 27.582715
289 1 16.499754 0.251442 25.300242
290 1 8.405116 1.860448 28.059867
291 1 1.197044 4.396035 30.877649
292 1 7.367541 1.787721 33.060462
293 1 5.474318 1.825562 32.704269
294 1 12.643360 7.539265 32.055217
295 1 15.228588 3.926708 28.408979
296 1 12.814785 2.392982 33.060462
297 1 6.674359 4.393581 33.060462
298 1 9.789194 7.754906 27.207560
299 1 1.368008 4.884499 27.706550
300 1 10.465481 8.766925 28.600494
