300
Atoms. Timestep: 0
416883616               2.17696                     5             34.309057
416883616               2.17696                     5             36.769057
416883616               2.17696                     5             39.229057
416883616               2.17696                     5             41.689057
416883616               2.17696                     5             44.149057
416883616               2.17696                     5             46.609057
416883616               2.17696                     5             49.069057
416883616              4.318422                     5             33.079057
416883616              4.318422                     5             35.539057
416883616              4.318422                     5             37.999057
416883616              4.318422                     5             40.459057
416883616              4.318422                     5             42.919057
416883616              4.318422                     5             45.379057
416883616              4.318422                     5             47.839057
416883616              3.604716                     5             34.309057
416883616              3.604716                     5             36.769057
416883616              3.604716                     5             39.229057
416883616              3.604716                     5             41.689057
416883616              3.604716                     5             44.149057
416883616              3.604716                     5             46.609057
416883616              3.604716                     5             49.069057
416883616              5.746178                     5             33.079057
416883616              5.746178                     5             35.539057
416883616              5.746178                     5             37.999057
416883616              5.746178                     5             40.459057
416883616              5.746178                     5             42.919057
416883616              5.746178                     5             45.379057
416883616              5.746178                     5             47.839057
416883616              6.459885                     5             34.309057
416883616              6.459885                     5             36.769057
416883584              6.459885                     5             39.229057
416883584              6.459885                     5             41.689057
416883584              6.459885                     5             44.149057
416883584              6.459885                     5             46.609057
416883584              6.459885                     5             49.069057
416883584              8.601347                     5             33.079057
416883584              8.601347                     5             35.539057
416883584              8.601347                     5             37.999057
416883584              8.601347                     5             40.459057
416883584              8.601347                     5             42.919057
416883584              8.601347                     5             45.379057
416883584              8.601347                     5             47.839057
416883584              7.887641                     5             34.309057
416883584              7.887641                     5             36.769057
416883584              7.887641                     5             39.229057
416883584              7.887641                     5             41.689057
416883584              7.887641                     5             44.149057
416883584              7.887641                     5             46.609057
416883584              7.887641                     5             49.069057
416883584             10.029103                     5             33.079057
416883584             10.029103                     5             35.539057
416883584             10.029103                     5             37.999057
416883584             10.029103                     5             40.459057
416883584             10.029103                     5             42.919057
416883584             10.029103                     5             45.379057
416883584             10.029103                     5             47.839057
416883584              10.74281                     5             34.309057
416883584              10.74281                     5             36.769057
416883584              10.74281                     5             39.229057
416883584              10.74281                     5             41.689057
416883584              10.74281                     5             44.149057
416883584              10.74281                     5             46.609057
416883584              10.74281                     5             49.069057
416883584             12.884272                     5             33.079057
416883584             12.884272                     5             35.539057
416883584             12.884272                     5             37.999057
416883584             12.884272                     5             40.459057
416883584             12.884272                     5             42.919057
416883584             12.884272                     5             45.379057
416883584             12.884272                     5             47.839057
416883584             12.170566                     5             34.309057
416883584             12.170566                     5             36.769057
416883584             12.170566                     5             39.229057
416883584             12.170566                     5             41.689057
416883584             12.170566                     5             44.149057
416883584             12.170566                     5             46.609057
416883584             12.170566                     5             49.069057
416883584             14.312028                     5             33.079057
416883584             14.312028                     5             35.539057
416883584             14.312028                     5             37.999057
416883584             14.312028                     5             40.459057
416883584             14.312028                     5             42.919057
416883584             14.312028                     5             45.379057
416883584             14.312028                     5             47.839057
416883584             15.025735                     5             34.309057
416883584             15.025735                     5             36.769057
416883584             15.025735                     5             39.229057
416883584             15.025735                     5             41.689057
416883584             15.025735                     5             44.149057
416883584             15.025735                     5             46.609057
416883584             15.025735                     5             49.069057
416883584              0.035497                     5             33.079057
416883584              0.035497                     5             35.539057
416883584              0.035497                     5             37.999057
416883584              0.035497                     5             40.459057
416883584              0.035497                     5             42.919057
416883584              0.035497                     5             45.379057
416883584              0.035497                     5             47.839057
416883584             16.453491                     5             34.309057
416883584             16.453491                     5             36.769057
416883584             16.453491                     5             39.229057
416883584             16.453491                     5             41.689057
416883584             16.453491                     5             44.149057
416883584             16.453491                     5             46.609057
416883584             16.453491                     5             49.069057
416883584              1.463253                     5             33.079057
416883584              1.463253                     5             35.539057
416883584              1.463253                     5             37.999057
416883584              1.463253                     5             40.459057
416883584              1.463253                     5             42.919057
416883584              1.463253                     5             45.379057
416883584              1.463253                     5             47.839057
416883616              1.606817                     5     0.056556999999998
416883616              4.174687                     5     0.056556999999998
416883616              5.891969                     5    0.0575570000000027
416883616              8.457612                     5     0.056556999999998
416883616             10.174894                     5    0.0575570000000027
416883616             12.740537                     5     0.056556999999998
416883616             14.457819                     5    0.0575570000000027
416883616             17.023462                     5     0.056556999999998
416883584             17.091783                     5                8.5655
416883584             17.091783                     5               12.8265
416883584             17.091783                     5               17.0875
416883584             17.091783                     5                21.348
416883584             17.091783                     5                 9.986
416883584             17.091783                     5               14.2465
416883584             17.091783                     5               18.5075
416883584             17.091783                     5               22.7685
416883584             15.868066                     5                10.696
416883584             15.868066                     5                14.957
416883584             15.868066                     5               19.2175
416883584             15.868066                     5               23.4785
416883584             15.868066                     5                7.8555
416883584             15.868066                     5               12.1165
416883584             15.868066                     5                16.377
416883584             15.868066                     5                20.638
416883584             14.644348                     5                8.5655
416883584             14.644348                     5               12.8265
416883584             14.644348                     5               17.0875
416883584             14.644348                     5                21.348
416883584             13.420631                     5                10.696
416883584             13.420631                     5                14.957
416883584             13.420631                     5               19.2175
416883584             13.420631                     5               23.4785
416883584             14.644348                     5                 9.986
416883584             14.644348                     5               14.2465
416883584             14.644348                     5               18.5075
416883584             14.644348                     5               22.7685
416883584             13.420631                     5                7.8555
416883584             13.420631                     5               12.1165
416883584             13.420631                     5                16.377
416883584             13.420631                     5                20.638
416883584             12.197085                     5                8.5655
416883584             12.197085                     5               12.8265
416883584             12.197085                     5               17.0875
416883584             12.197085                     5                21.348
416883584             10.973368                     5                10.696
416883584             10.973368                     5                14.957
416883584             10.973368                     5               19.2175
416883584             10.973368                     5               23.4785
416883584             12.197085                     5                 9.986
416883584             12.197085                     5               14.2465
416883584             12.197085                     5               18.5075
416883584             12.197085                     5               22.7685
416883584             10.973368                     5                7.8555
416883584             10.973368                     5               12.1165
416883584             10.973368                     5                16.377
416883584             10.973368                     5                20.638
416883584               9.74965                     5                8.5655
416883584               9.74965                     5               12.8265
416883584               9.74965                     5               17.0875
416883584               9.74965                     5                21.348
416883584              8.525933                     5                10.696
416883584              8.525933                     5                14.957
416883584              8.525933                     5               19.2175
416883584              8.525933                     5               23.4785
416883584               9.74965                     5                 9.986
416883584               9.74965                     5               14.2465
416883584               9.74965                     5               18.5075
416883584               9.74965                     5               22.7685
416883584              8.525933                     5                7.8555
416883584              8.525933                     5               12.1165
416883584              8.525933                     5                16.377
416883584              8.525933                     5                20.638
416883584              7.302216                     5                8.5655
416883584              7.302216                     5               12.8265
416883584              7.302216                     5               17.0875
416883584              7.302216                     5                21.348
416883584              6.078498                     5                10.696
416883584              6.078498                     5                14.957
416883584              6.078498                     5               19.2175
416883584              6.078498                     5               23.4785
416883584              7.302216                     5                 9.986
416883584              7.302216                     5               14.2465
416883584              7.302216                     5               18.5075
416883584              7.302216                     5               22.7685
416883584              6.078498                     5                7.8555
416883584              6.078498                     5               12.1165
416883584              6.078498                     5                16.377
416883584              6.078498                     5                20.638
416883584              4.854781                     5                8.5655
416883584              4.854781                     5               12.8265
416883584              4.854781                     5               17.0875
416883584              4.854781                     5                21.348
416883584              3.631235                     5                10.696
416883584              3.631235                     5                14.957
416883584              3.631235                     5               19.2175
416883584              3.631235                     5               23.4785
416883584              4.854781                     5                 9.986
416883584              4.854781                     5               14.2465
416883584              4.854781                     5               18.5075
416883584              4.854781                     5               22.7685
416883584              3.631235                     5                7.8555
416883584              3.631235                     5               12.1165
416883584              3.631235                     5                16.377
416883584              3.631235                     5                20.638
416883584              2.407518                     5                8.5655
416883584              2.407518                     5               12.8265
416883584              2.407518                     5               17.0875
416883584              2.407518                     5                21.348
416883584                1.1838                     5                10.696
416883584                1.1838                     5                14.957
416883584                1.1838                     5               19.2175
416883584                1.1838                     5               23.4785
416883584              2.407518                     5                 9.986
416883584              2.407518                     5               14.2465
416883584              2.407518                     5               18.5075
416883584              2.407518                     5               22.7685
416883584                1.1838                     5                7.8555
416883584                1.1838                     5               12.1165
416883584                1.1838                     5                16.377
416883584                1.1838                     5                20.638
416883616             15.865667                     5                6.7155
416883616              13.42303                     5                6.7155
416883616             10.975766                     5                6.7155
416883616              8.528332                     5                6.7155
416883616              6.080897                     5                6.7155
416883616              3.633634                     5                6.7155
416883616              1.181402                     5                6.7155
416883616              6.968353              6.613822             27.285527
416883616               3.18343              4.995824             24.212553
416883616             14.773762              4.812708             32.495345
416883616             14.796012              0.523733             32.577493
416883616               4.62624              6.146185             32.458226
416883616              5.643428              6.582373             27.858924
416883616              3.987577              4.902728             26.593084
416883616              3.448963              0.779337             29.071993
416883616             16.478152              9.999692             24.924695
416883616              3.141889              3.183172             28.288967
416883616               0.98113              1.289709             32.859847
416883616             15.755203              7.405864             25.353699
416883616              6.293781              2.585369             31.850678
416883616             11.666391              5.278394             28.645986
416883616              6.981114              0.513887             23.597959
416883616             10.118839              0.421582             32.341688
416883616             10.764468              2.110552             23.663542
416883616              8.298128              4.749136             24.504281
416883616               3.99015              1.908286             25.248344
416883616             16.491933              9.189838             28.086302
416883616              4.365867              1.582029             29.811383
416883616              0.537956              5.115031             29.097722
416883616              0.808266              4.261506             23.746369
416883616              5.938146              0.301145             24.515296
416883616             13.806506              5.284472             27.900171
416883616             13.801514              9.298913             28.342713
416883616              2.736385              7.514933             27.750321
416883616              2.204856              0.389491             28.965223
416883584              6.860812              3.097023             26.639493
416883584              0.514744               6.88444             31.958482
416883584              13.04435              8.344927             28.566985
416883584             12.843091              1.287258             32.758783
416883584             11.414162              5.660195              25.39396
416883584             16.008316              7.991404              32.71139
416883584             11.654769              2.404194             25.769487
416883584              7.903807              1.120847             31.315136
416883584             14.373346              4.857169             30.216391
416883584             14.408201              0.921891             25.224303
416883584             12.964327              0.767786             25.916899
416883584             12.342693              1.432853              27.82794
416883584             12.342615              8.937741             25.271676
416883584             15.784198              3.379695             25.689326
416883584             11.235487              2.863099             32.704397
416883584             10.089788              0.800976             30.379604
416883584             15.411308              6.634004             31.487617
416883584              3.530992              9.044274             25.487056
416883584              7.820824              1.279757             28.420056
416883584             15.698587              3.061963             32.934673
416883584              3.480425              1.061097             24.030187
416883584             12.727043              3.462561             29.348512
416883584              4.049151              3.969868             28.241523
416883584             11.707116              7.449429             31.718153
416883584              2.566698              9.616324             27.574728
416883584             16.541921              1.585516               27.4205
416883584               5.58575              7.492415             32.437815
416883584              14.06468               8.34076             31.070033
416883584             16.516005              4.210352             26.304502
416883584              7.513354              5.658949              30.68984
416883584              6.749873              1.104879             27.983571
416883584               7.08479              6.482477             24.118094
416883584              6.344911               0.48575             24.876209
300
Atoms. Timestep: 8
416883616      2.17442122848587                     5      34.3134710952073
416883616      2.17442122848587                     5      36.7734710952073
416883616      2.17442122848587                     5      39.2334710952073
416883616      2.17442122848587                     5      41.6934710952073
416883616      2.17442122848587                     5      44.1534710952073
416883616      2.17442122848587                     5      46.6134710952073
416883616      2.17442122848587                     5      49.0734710952073
416883616      4.31588322848587                     5      33.0834710952073
416883616      4.31588322848587                     5      35.5434710952073
416883616      4.31588322848587                     5      38.0034710952073
416883616      4.31588322848587                     5      40.4634710952073
416883616      4.31588322848587                     5      42.9234710952073
416883616      4.31588322848587                     5      45.3834710952073
416883616      4.31588322848587                     5      47.8434710952073
416883616      3.60217722848587                     5      34.3134710952073
416883616      3.60217722848587                     5      36.7734710952073
416883616      3.60217722848587                     5      39.2334710952073
416883616      3.60217722848587                     5      41.6934710952073
416883616      3.60217722848587                     5      44.1534710952073
416883616      3.60217722848587                     5      46.6134710952073
416883616      3.60217722848587                     5      49.0734710952073
416883616      5.74363922848587                     5      33.0834710952073
416883616      5.74363922848587                     5      35.5434710952073
416883616      5.74363922848587                     5      38.0034710952073
416883616      5.74363922848587                     5      40.4634710952073
416883616      5.74363922848587                     5      42.9234710952073
416883616      5.74363922848587                     5      45.3834710952073
416883616      5.74363922848587                     5      47.8434710952073
416883616      6.45734622848587                     5      34.3134710952073
416883616      6.45734622848587                     5      36.7734710952073
416883584      6.45734622848587                     5      39.2334710952073
416883584      6.45734622848587                     5      41.6934710952073
416883584      6.45734622848587                     5      44.1534710952073
416883584      6.45734622848587                     5      46.6134710952073
416883584      6.45734622848587                     5      49.0734710952073
416883584      8.59880822848587                     5      33.0834710952073
416883584      8.59880822848587                     5      35.5434710952073
416883584      8.59880822848587                     5      38.0034710952073
416883584      8.59880822848587                     5      40.4634710952073
416883584      8.59880822848587                     5      42.9234710952073
416883584      8.59880822848587                     5      45.3834710952073
416883584      8.59880822848587                     5      47.8434710952073
416883584      7.88510222848587                     5      34.3134710952073
416883584      7.88510222848587                     5      36.7734710952073
416883584      7.88510222848587                     5      39.2334710952073
416883584      7.88510222848587                     5      41.6934710952073
416883584      7.88510222848587                     5      44.1534710952073
416883584      7.88510222848587                     5      46.6134710952073
416883584      7.88510222848587                     5      49.0734710952073
416883584      10.0265642284859                     5      33.0834710952073
416883584      10.0265642284859                     5      35.5434710952073
416883584      10.0265642284859                     5      38.0034710952073
416883584      10.0265642284859                     5      40.4634710952073
416883584      10.0265642284859                     5      42.9234710952073
416883584      10.0265642284859                     5      45.3834710952073
416883584      10.0265642284859                     5      47.8434710952073
416883584      10.7402712284859                     5      34.3134710952073
416883584      10.7402712284859                     5      36.7734710952073
416883584      10.7402712284859                     5      39.2334710952073
416883584      10.7402712284859                     5      41.6934710952073
416883584      10.7402712284859                     5      44.1534710952073
416883584      10.7402712284859                     5      46.6134710952073
416883584      10.7402712284859                     5      49.0734710952073
416883584      12.8817332284859                     5      33.0834710952073
416883584      12.8817332284859                     5      35.5434710952073
416883584      12.8817332284859                     5      38.0034710952073
416883584      12.8817332284859                     5      40.4634710952073
416883584      12.8817332284859                     5      42.9234710952073
416883584      12.8817332284859                     5      45.3834710952073
416883584      12.8817332284859                     5      47.8434710952073
416883584      12.1680272284859                     5      34.3134710952073
416883584      12.1680272284859                     5      36.7734710952073
416883584      12.1680272284859                     5      39.2334710952073
416883584      12.1680272284859                     5      41.6934710952073
416883584      12.1680272284859                     5      44.1534710952073
416883584      12.1680272284859                     5      46.6134710952073
416883584      12.1680272284859                     5      49.0734710952073
416883584      14.3094892284859                     5      33.0834710952073
416883584      14.3094892284859                     5      35.5434710952073
416883584      14.3094892284859                     5      38.0034710952073
416883584      14.3094892284859                     5      40.4634710952073
416883584      14.3094892284859                     5      42.9234710952073
416883584      14.3094892284859                     5      45.3834710952073
416883584      14.3094892284859                     5      47.8434710952073
416883584      15.0231962284859                     5      34.3134710952073
416883584      15.0231962284859                     5      36.7734710952073
416883584      15.0231962284859                     5      39.2334710952073
416883584      15.0231962284859                     5      41.6934710952073
416883584      15.0231962284859                     5      44.1534710952073
416883584      15.0231962284859                     5      46.6134710952073
416883584      15.0231962284859                     5      49.0734710952073
416883584    0.0329582284858694                     5      33.0834710952073
416883584    0.0329582284858694                     5      35.5434710952073
416883584    0.0329582284858694                     5      38.0034710952073