search structure

300 atoms
2  atom types

0   17.131700 xlo xhi
0   10.000000 ylo yhi
0   50.000000 zlo zhi

Atoms

1 2 2.176960 5.000000 34.309057
2 2 2.176960 5.000000 36.769057
3 2 2.176960 5.000000 39.229057
4 2 2.176960 5.000000 41.689057
5 2 2.176960 5.000000 44.149057
6 2 2.176960 5.000000 46.609057
7 2 2.176960 5.000000 49.069057
8 2 4.318422 5.000000 33.079057
9 2 4.318422 5.000000 35.539057
10 2 4.318422 5.000000 37.999057
11 2 4.318422 5.000000 40.459057
12 2 4.318422 5.000000 42.919057
13 2 4.318422 5.000000 45.379057
14 2 4.318422 5.000000 47.839057
15 2 3.604716 5.000000 34.309057
16 2 3.604716 5.000000 36.769057
17 2 3.604716 5.000000 39.229057
18 2 3.604716 5.000000 41.689057
19 2 3.604716 5.000000 44.149057
20 2 3.604716 5.000000 46.609057
21 2 3.604716 5.000000 49.069057
22 2 5.746178 5.000000 33.079057
23 2 5.746178 5.000000 35.539057
24 2 5.746178 5.000000 37.999057
25 2 5.746178 5.000000 40.459057
26 2 5.746178 5.000000 42.919057
27 2 5.746178 5.000000 45.379057
28 2 5.746178 5.000000 47.839057
29 2 6.459885 5.000000 34.309057
30 2 6.459885 5.000000 36.769057
31 1 6.459885 5.000000 39.229057
32 1 6.459885 5.000000 41.689057
33 1 6.459885 5.000000 44.149057
34 1 6.459885 5.000000 46.609057
35 1 6.459885 5.000000 49.069057
36 1 8.601347 5.000000 33.079057
37 1 8.601347 5.000000 35.539057
38 1 8.601347 5.000000 37.999057
39 1 8.601347 5.000000 40.459057
40 1 8.601347 5.000000 42.919057
41 1 8.601347 5.000000 45.379057
42 1 8.601347 5.000000 47.839057
43 1 7.887641 5.000000 34.309057
44 1 7.887641 5.000000 36.769057
45 1 7.887641 5.000000 39.229057
46 1 7.887641 5.000000 41.689057
47 1 7.887641 5.000000 44.149057
48 1 7.887641 5.000000 46.609057
49 1 7.887641 5.000000 49.069057
50 1 10.029103 5.000000 33.079057
51 1 10.029103 5.000000 35.539057
52 1 10.029103 5.000000 37.999057
53 1 10.029103 5.000000 40.459057
54 1 10.029103 5.000000 42.919057
55 1 10.029103 5.000000 45.379057
56 1 10.029103 5.000000 47.839057
57 1 10.742810 5.000000 34.309057
58 1 10.742810 5.000000 36.769057
59 1 10.742810 5.000000 39.229057
60 1 10.742810 5.000000 41.689057
61 1 10.742810 5.000000 44.149057
62 1 10.742810 5.000000 46.609057
63 1 10.742810 5.000000 49.069057
64 1 12.884272 5.000000 33.079057
65 1 12.884272 5.000000 35.539057
66 1 12.884272 5.000000 37.999057
67 1 12.884272 5.000000 40.459057
68 1 12.884272 5.000000 42.919057
69 1 12.884272 5.000000 45.379057
70 1 12.884272 5.000000 47.839057
71 1 12.170566 5.000000 34.309057
72 1 12.170566 5.000000 36.769057
73 1 12.170566 5.000000 39.229057
74 1 12.170566 5.000000 41.689057
75 1 12.170566 5.000000 44.149057
76 1 12.170566 5.000000 46.609057
77 1 12.170566 5.000000 49.069057
78 1 14.312028 5.000000 33.079057
79 1 14.312028 5.000000 35.539057
80 1 14.312028 5.000000 37.999057
81 1 14.312028 5.000000 40.459057
82 1 14.312028 5.000000 42.919057
83 1 14.312028 5.000000 45.379057
84 1 14.312028 5.000000 47.839057
85 1 15.025735 5.000000 34.309057
86 1 15.025735 5.000000 36.769057
87 1 15.025735 5.000000 39.229057
88 1 15.025735 5.000000 41.689057
89 1 15.025735 5.000000 44.149057
90 1 15.025735 5.000000 46.609057
91 1 15.025735 5.000000 49.069057
92 1 0.035497 5.000000 33.079057
93 1 0.035497 5.000000 35.539057
94 1 0.035497 5.000000 37.999057
95 1 0.035497 5.000000 40.459057
96 1 0.035497 5.000000 42.919057
97 1 0.035497 5.000000 45.379057
98 1 0.035497 5.000000 47.839057
99 1 16.453491 5.000000 34.309057
100 1 16.453491 5.000000 36.769057
101 1 16.453491 5.000000 39.229057
102 1 16.453491 5.000000 41.689057
103 1 16.453491 5.000000 44.149057
104 1 16.453491 5.000000 46.609057
105 1 16.453491 5.000000 49.069057
106 1 1.463253 5.000000 33.079057
107 1 1.463253 5.000000 35.539057
108 1 1.463253 5.000000 37.999057
109 1 1.463253 5.000000 40.459057
110 1 1.463253 5.000000 42.919057
111 1 1.463253 5.000000 45.379057
112 1 1.463253 5.000000 47.839057
113 2 1.606817 5.000000 50.056557
114 2 4.174687 5.000000 50.056557
115 2 5.891969 5.000000 50.057557
116 2 8.457612 5.000000 50.056557
117 2 10.174894 5.000000 50.057557
118 2 12.740537 5.000000 50.056557
119 2 14.457819 5.000000 50.057557
120 2 17.023462 5.000000 50.056557
121 1 -0.039917 5.000000 8.565500
122 1 -0.039917 5.000000 12.826500
123 1 -0.039917 5.000000 17.087500
124 1 -0.039917 5.000000 21.348000
125 1 -0.039917 5.000000 9.986000
126 1 -0.039917 5.000000 14.246500
127 1 -0.039917 5.000000 18.507500
128 1 -0.039917 5.000000 22.768500
129 1 15.868066 5.000000 10.696000
130 1 15.868066 5.000000 14.957000
131 1 15.868066 5.000000 19.217500
132 1 15.868066 5.000000 23.478500
133 1 15.868066 5.000000 7.855500
134 1 15.868066 5.000000 12.116500
135 1 15.868066 5.000000 16.377000
136 1 15.868066 5.000000 20.638000
137 1 14.644348 5.000000 8.565500
138 1 14.644348 5.000000 12.826500
139 1 14.644348 5.000000 17.087500
140 1 14.644348 5.000000 21.348000
141 1 13.420631 5.000000 10.696000
142 1 13.420631 5.000000 14.957000
143 1 13.420631 5.000000 19.217500
144 1 13.420631 5.000000 23.478500
145 1 14.644348 5.000000 9.986000
146 1 14.644348 5.000000 14.246500
147 1 14.644348 5.000000 18.507500
148 1 14.644348 5.000000 22.768500
149 1 13.420631 5.000000 7.855500
150 1 13.420631 5.000000 12.116500
151 1 13.420631 5.000000 16.377000
152 1 13.420631 5.000000 20.638000
153 1 12.197085 5.000000 8.565500
154 1 12.197085 5.000000 12.826500
155 1 12.197085 5.000000 17.087500
156 1 12.197085 5.000000 21.348000
157 1 10.973368 5.000000 10.696000
158 1 10.973368 5.000000 14.957000
159 1 10.973368 5.000000 19.217500
160 1 10.973368 5.000000 23.478500
161 1 12.197085 5.000000 9.986000
162 1 12.197085 5.000000 14.246500
163 1 12.197085 5.000000 18.507500
164 1 12.197085 5.000000 22.768500
165 1 10.973368 5.000000 7.855500
166 1 10.973368 5.000000 12.116500
167 1 10.973368 5.000000 16.377000
168 1 10.973368 5.000000 20.638000
169 1 9.749650 5.000000 8.565500
170 1 9.749650 5.000000 12.826500
171 1 9.749650 5.000000 17.087500
172 1 9.749650 5.000000 21.348000
173 1 8.525933 5.000000 10.696000
174 1 8.525933 5.000000 14.957000
175 1 8.525933 5.000000 19.217500
176 1 8.525933 5.000000 23.478500
177 1 9.749650 5.000000 9.986000
178 1 9.749650 5.000000 14.246500
179 1 9.749650 5.000000 18.507500
180 1 9.749650 5.000000 22.768500
181 1 8.525933 5.000000 7.855500
182 1 8.525933 5.000000 12.116500
183 1 8.525933 5.000000 16.377000
184 1 8.525933 5.000000 20.638000
185 1 7.302216 5.000000 8.565500
186 1 7.302216 5.000000 12.826500
187 1 7.302216 5.000000 17.087500
188 1 7.302216 5.000000 21.348000
189 1 6.078498 5.000000 10.696000
190 1 6.078498 5.000000 14.957000
191 1 6.078498 5.000000 19.217500
192 1 6.078498 5.000000 23.478500
193 1 7.302216 5.000000 9.986000
194 1 7.302216 5.000000 14.246500
195 1 7.302216 5.000000 18.507500
196 1 7.302216 5.000000 22.768500
197 1 6.078498 5.000000 7.855500
198 1 6.078498 5.000000 12.116500
199 1 6.078498 5.000000 16.377000
200 1 6.078498 5.000000 20.638000
201 1 4.854781 5.000000 8.565500
202 1 4.854781 5.000000 12.826500
203 1 4.854781 5.000000 17.087500
204 1 4.854781 5.000000 21.348000
205 1 3.631235 5.000000 10.696000
206 1 3.631235 5.000000 14.957000
207 1 3.631235 5.000000 19.217500
208 1 3.631235 5.000000 23.478500
209 1 4.854781 5.000000 9.986000
210 1 4.854781 5.000000 14.246500
211 1 4.854781 5.000000 18.507500
212 1 4.854781 5.000000 22.768500
213 1 3.631235 5.000000 7.855500
214 1 3.631235 5.000000 12.116500
215 1 3.631235 5.000000 16.377000
216 1 3.631235 5.000000 20.638000
217 1 2.407518 5.000000 8.565500
218 1 2.407518 5.000000 12.826500
219 1 2.407518 5.000000 17.087500
220 1 2.407518 5.000000 21.348000
221 1 1.183800 5.000000 10.696000
222 1 1.183800 5.000000 14.957000
223 1 1.183800 5.000000 19.217500
224 1 1.183800 5.000000 23.478500
225 1 2.407518 5.000000 9.986000
226 1 2.407518 5.000000 14.246500
227 1 2.407518 5.000000 18.507500
228 1 2.407518 5.000000 22.768500
229 1 1.183800 5.000000 7.855500
230 1 1.183800 5.000000 12.116500
231 1 1.183800 5.000000 16.377000
232 1 1.183800 5.000000 20.638000
233 2 15.865667 5.000000 6.715500
234 2 13.423030 5.000000 6.715500
235 2 10.975766 5.000000 6.715500
236 2 8.528332 5.000000 6.715500
237 2 6.080897 5.000000 6.715500
238 2 3.633634 5.000000 6.715500
239 2 1.181402 5.000000 6.715500
240 2 6.968353 6.613822 27.285527
241 2 3.183430 4.995824 24.212553
242 2 14.773762 4.812708 32.495345
243 2 14.796012 0.523733 32.577493
244 2 4.626240 6.146185 32.458226
245 2 5.643428 6.582373 27.858924
246 2 3.987577 4.902728 26.593084
247 2 3.448963 0.779337 29.071993
248 2 16.478152 9.999692 24.924695
249 2 3.141889 3.183172 28.288967
250 2 0.981130 1.289709 32.859847
251 2 15.755203 7.405864 25.353699
252 2 6.293781 2.585369 31.850678
253 2 11.666391 5.278394 28.645986
254 2 6.981114 0.513887 23.597959
255 2 10.118839 0.421582 32.341688
256 2 10.764468 2.110552 23.663542
257 2 8.298128 4.749136 24.504281
258 2 3.990150 1.908286 25.248344
259 2 16.491933 9.189838 28.086302
260 2 4.365867 1.582029 29.811383
261 2 0.537956 5.115031 29.097722
262 2 0.808266 4.261506 23.746369
263 2 5.938146 0.301145 24.515296
264 2 13.806506 5.284472 27.900171
265 2 13.801514 9.298913 28.342713
266 2 2.736385 7.514933 27.750321
267 2 2.204856 0.389491 28.965223
268 1 6.860812 3.097023 26.639493
269 1 0.514744 6.884440 31.958482
270 1 13.044350 8.344927 28.566985
271 1 12.843091 1.287258 32.758783
272 1 11.414162 5.660195 25.393960
273 1 16.008316 7.991404 32.711390
274 1 11.654769 2.404194 25.769487
275 1 7.903807 1.120847 31.315136
276 1 14.373346 4.857169 30.216391
277 1 14.408201 0.921891 25.224303
278 1 12.964327 0.767786 25.916899
279 1 12.342693 1.432853 27.827940
280 1 12.342615 8.937741 25.271676
281 1 15.784198 3.379695 25.689326
282 1 11.235487 2.863099 32.704397
283 1 10.089788 0.800976 30.379604
284 1 15.411308 6.634004 31.487617
285 1 3.530992 9.044274 25.487056
286 1 7.820824 1.279757 28.420056
287 1 15.698587 3.061963 32.934673
288 1 3.480425 1.061097 24.030187
289 1 12.727043 3.462561 29.348512
290 1 4.049151 3.969868 28.241523
291 1 11.707116 7.449429 31.718153
292 1 2.566698 9.616324 27.574728
293 1 16.541921 1.585516 27.420500
294 1 5.585750 7.492415 32.437815
295 1 14.064680 8.340760 31.070033
296 1 16.516005 4.210352 26.304502
297 1 7.513354 5.658949 30.689840
298 1 6.749873 1.104879 27.983571
299 1 7.084790 6.482477 24.118094
300 1 6.344911 0.485750 24.876209
