300
Atoms. Timestep: 0
130683808             15.488267                     5             34.664296
130683808             15.488267                     5             37.124296
130683808             15.488267                     5             39.584296
130683808             15.488267                     5             42.044296
130683808             15.488267                     5             44.504296
130683808             15.488267                     5             46.964296
130683808             15.488267                     5             49.424296
130683808              0.498029                     5             33.434296
130683808              0.498029                     5             35.894296
130683808              0.498029                     5             38.354296
130683808              0.498029                     5             40.814296
130683808              0.498029                     5             43.274296
130683808              0.498029                     5             45.734296
130683808              0.498029                     5             48.194296
130683808             16.916022                     5             34.664296
130683808             16.916022                     5             37.124296
130683808             16.916022                     5             39.584296
130683808             16.916022                     5             42.044296
130683808             16.916022                     5             44.504296
130683808             16.916022                     5             46.964296
130683808             16.916022                     5             49.424296
130683808              1.925785                     5             33.434296
130683808              1.925785                     5             35.894296
130683808              1.925785                     5             38.354296
130683808              1.925785                     5             40.814296
130683808              1.925785                     5             43.274296
130683808              1.925785                     5             45.734296
130683808              1.925785                     5             48.194296
130683808              2.639492                     5             34.664296
130683808              2.639492                     5             37.124296
130683776              2.639492                     5             39.584296
130683776              2.639492                     5             42.044296
130683776              2.639492                     5             44.504296
130683776              2.639492                     5             46.964296
130683776              2.639492                     5             49.424296
130683776              4.780954                     5             33.434296
130683776              4.780954                     5             35.894296
130683776              4.780954                     5             38.354296
130683776              4.780954                     5             40.814296
130683776              4.780954                     5             43.274296
130683776              4.780954                     5             45.734296
130683776              4.780954                     5             48.194296
130683776              4.067247                     5             34.664296
130683776              4.067247                     5             37.124296
130683776              4.067247                     5             39.584296
130683776              4.067247                     5             42.044296
130683776              4.067247                     5             44.504296
130683776              4.067247                     5             46.964296
130683776              4.067247                     5             49.424296
130683776               6.20871                     5             33.434296
130683776               6.20871                     5             35.894296
130683776               6.20871                     5             38.354296
130683776               6.20871                     5             40.814296
130683776               6.20871                     5             43.274296
130683776               6.20871                     5             45.734296
130683776               6.20871                     5             48.194296
130683776              6.922417                     5             34.664296
130683776              6.922417                     5             37.124296
130683776              6.922417                     5             39.584296
130683776              6.922417                     5             42.044296
130683776              6.922417                     5             44.504296
130683776              6.922417                     5             46.964296
130683776              6.922417                     5             49.424296
130683776              9.063879                     5             33.434296
130683776              9.063879                     5             35.894296
130683776              9.063879                     5             38.354296
130683776              9.063879                     5             40.814296
130683776              9.063879                     5             43.274296
130683776              9.063879                     5             45.734296
130683776              9.063879                     5             48.194296
130683776              8.350172                     5             34.664296
130683776              8.350172                     5             37.124296
130683776              8.350172                     5             39.584296
130683776              8.350172                     5             42.044296
130683776              8.350172                     5             44.504296
130683776              8.350172                     5             46.964296
130683776              8.350172                     5             49.424296
130683776             10.491635                     5             33.434296
130683776             10.491635                     5             35.894296
130683776             10.491635                     5             38.354296
130683776             10.491635                     5             40.814296
130683776             10.491635                     5             43.274296
130683776             10.491635                     5             45.734296
130683776             10.491635                     5             48.194296
130683776             11.205342                     5             34.664296
130683776             11.205342                     5             37.124296
130683776             11.205342                     5             39.584296
130683776             11.205342                     5             42.044296
130683776             11.205342                     5             44.504296
130683776             11.205342                     5             46.964296
130683776             11.205342                     5             49.424296
130683776             13.346804                     5             33.434296
130683776             13.346804                     5             35.894296
130683776             13.346804                     5             38.354296
130683776             13.346804                     5             40.814296
130683776             13.346804                     5             43.274296
130683776             13.346804                     5             45.734296
130683776             13.346804                     5             48.194296
130683776             12.633097                     5             34.664296
130683776             12.633097                     5             37.124296
130683776             12.633097                     5             39.584296
130683776             12.633097                     5             42.044296
130683776             12.633097                     5             44.504296
130683776             12.633097                     5             46.964296
130683776             12.633097                     5             49.424296
130683776              14.77456                     5             33.434296
130683776              14.77456                     5             35.894296
130683776              14.77456                     5             38.354296
130683776              14.77456                     5             40.814296
130683776              14.77456                     5             43.274296
130683776              14.77456                     5             45.734296
130683776              14.77456                     5             48.194296
130683808             14.918124                     5     0.411796000000002
130683808              0.354294                     5     0.411796000000002
130683808              2.071576                     5              0.412796
130683808              4.637219                     5     0.411796000000002
130683808              6.354501                     5              0.412796
130683808              8.920144                     5     0.411796000000002
130683808             10.637426                     5              0.412796
130683808             13.203069                     5     0.411796000000002
130683776             17.091783                     5                8.5655
130683776             17.091783                     5               12.8265
130683776             17.091783                     5               17.0875
130683776             17.091783                     5                21.348
130683776             17.091783                     5                 9.986
130683776             17.091783                     5               14.2465
130683776             17.091783                     5               18.5075
130683776             17.091783                     5               22.7685
130683776             15.868066                     5                10.696
130683776             15.868066                     5                14.957
130683776             15.868066                     5               19.2175
130683776             15.868066                     5               23.4785
130683776             15.868066                     5                7.8555
130683776             15.868066                     5               12.1165
130683776             15.868066                     5                16.377
130683776             15.868066                     5                20.638
130683776             14.644348                     5                8.5655
130683776             14.644348                     5               12.8265
130683776             14.644348                     5               17.0875
130683776             14.644348                     5                21.348
130683776             13.420631                     5                10.696
130683776             13.420631                     5                14.957
130683776             13.420631                     5               19.2175
130683776             13.420631                     5               23.4785
130683776             14.644348                     5                 9.986
130683776             14.644348                     5               14.2465
130683776             14.644348                     5               18.5075
130683776             14.644348                     5               22.7685
130683776             13.420631                     5                7.8555
130683776             13.420631                     5               12.1165
130683776             13.420631                     5                16.377
130683776             13.420631                     5                20.638
130683776             12.197085                     5                8.5655
130683776             12.197085                     5               12.8265
130683776             12.197085                     5               17.0875
130683776             12.197085                     5                21.348
130683776             10.973368                     5                10.696
130683776             10.973368                     5                14.957
130683776             10.973368                     5               19.2175
130683776             10.973368                     5               23.4785
130683776             12.197085                     5                 9.986
130683776             12.197085                     5               14.2465
130683776             12.197085                     5               18.5075
130683776             12.197085                     5               22.7685
130683776             10.973368                     5                7.8555
130683776             10.973368                     5               12.1165
130683776             10.973368                     5                16.377
130683776             10.973368                     5                20.638
130683776               9.74965                     5                8.5655
130683776               9.74965                     5               12.8265
130683776               9.74965                     5               17.0875
130683776               9.74965                     5                21.348
130683776              8.525933                     5                10.696
130683776              8.525933                     5                14.957
130683776              8.525933                     5               19.2175
130683776              8.525933                     5               23.4785
130683776               9.74965                     5                 9.986
130683776               9.74965                     5               14.2465
130683776               9.74965                     5               18.5075
130683776               9.74965                     5               22.7685
130683776              8.525933                     5                7.8555
130683776              8.525933                     5               12.1165
130683776              8.525933                     5                16.377
130683776              8.525933                     5                20.638
130683776              7.302216                     5                8.5655
130683776              7.302216                     5               12.8265
130683776              7.302216                     5               17.0875
130683776              7.302216                     5                21.348
130683776              6.078498                     5                10.696
130683776              6.078498                     5                14.957
130683776              6.078498                     5               19.2175
130683776              6.078498                     5               23.4785
130683776              7.302216                     5                 9.986
130683776              7.302216                     5               14.2465
130683776              7.302216                     5               18.5075
130683776              7.302216                     5               22.7685
130683776              6.078498                     5                7.8555
130683776              6.078498                     5               12.1165
130683776              6.078498                     5                16.377
130683776              6.078498                     5                20.638
130683776              4.854781                     5                8.5655
130683776              4.854781                     5               12.8265
130683776              4.854781                     5               17.0875
130683776              4.854781                     5                21.348
130683776              3.631235                     5                10.696
130683776              3.631235                     5                14.957
130683776              3.631235                     5               19.2175
130683776              3.631235                     5               23.4785
130683776              4.854781                     5                 9.986
130683776              4.854781                     5               14.2465
130683776              4.854781                     5               18.5075
130683776              4.854781                     5               22.7685
130683776              3.631235                     5                7.8555
130683776              3.631235                     5               12.1165
130683776              3.631235                     5                16.377
130683776              3.631235                     5                20.638
130683776              2.407518                     5                8.5655
130683776              2.407518                     5               12.8265
130683776              2.407518                     5               17.0875
130683776              2.407518                     5                21.348
130683776                1.1838                     5                10.696
130683776                1.1838                     5                14.957
130683776                1.1838                     5               19.2175
130683776                1.1838                     5               23.4785
130683776              2.407518                     5                 9.986
130683776              2.407518                     5               14.2465
130683776              2.407518                     5               18.5075
130683776              2.407518                     5               22.7685
130683776                1.1838                     5                7.8555
130683776                1.1838                     5               12.1165
130683776                1.1838                     5                16.377
130683776                1.1838                     5                20.638
130683808             15.865667                     5                6.7155
130683808              13.42303                     5                6.7155
130683808             10.975766                     5                6.7155
130683808              8.528332                     5                6.7155
130683808              6.080897                     5                6.7155
130683808              3.633634                     5                6.7155
130683808              1.181402                     5                6.7155
130683808               5.59798              0.184754             25.802995
130683808              2.880594              5.965546             24.759702
130683808             10.911197              9.112424             25.432013
130683808              6.972595              9.150966             25.351571
130683808             13.861795              2.930523             24.562222
130683808             11.369338              5.351043             25.461942
130683808              11.91447              6.626784             25.239361
130683808             12.177218              8.234496             24.150901
130683808             16.510668               9.91926             25.068228
130683808              1.050113              2.142132             28.695799
130683808              7.840518              2.392641             29.033237
130683808              3.709378              3.729654             26.517907
130683808              9.579264              8.199951             28.346574
130683808             14.263921              0.929758             28.669866
130683808              14.44737              1.341355             26.317119
130683808             16.464629              2.315867             26.083578
130683808             16.397815              2.553844             26.689545
130683808             13.717031              7.409912             26.611667
130683808              5.834757              1.919436             30.048989
130683808              4.296838              6.981269             30.509728
130683808              7.385409              8.373287             29.425594
130683808              5.708826              8.869317             29.534187
130683808              7.939779              9.901585             30.587139
130683808             11.481904              1.350754             33.032436
130683808             16.462554              1.351038             32.537599
130683808              15.59577              3.673163             29.569259
130683808             13.292511              4.157058              32.24497
130683808              8.027485              9.103012              29.55493
130683776              8.303501               1.11595             26.308026
130683776              9.615568              2.455851             24.430269
130683776              9.282786              4.672174             25.935357
130683776               5.37795              8.628752             24.979772
130683776              8.069907              9.019507             25.608179
130683776             16.586052              1.235948              23.98276
130683776             15.369631              1.318698             25.484258
130683776             15.351886              3.961592             27.285247
130683776             12.941459              5.317655             24.245063
130683776             11.184535              7.648656             25.903093
130683776             13.569119              8.837635             26.936721
130683776              5.830581              0.426819             28.144328
130683776              4.757784              0.822403             29.234321
130683776              2.145333              1.096347             28.485372
130683776              4.883835              1.752513             28.435721
130683776              3.678572              5.680038             30.457117
130683776              6.833022              0.119408             29.287102
130683776              9.181481              1.596153             29.351889
130683776              16.44056              3.174093             28.311286
130683776             15.801646              8.891231             28.084277
130683776              9.750756              9.585678             29.096805
130683776             13.706878              9.892467             27.900365
130683776              2.959295              0.381625              31.41502
130683776              6.909457              4.008035             33.096948
130683776              8.452394                4.7958             31.465202
130683776              2.652754              5.399365              33.19292
130683776              8.335612              7.328532             30.549829
130683776             10.434367              0.952976             31.920756
130683776             11.039379              2.258571             32.653685
130683776             10.836969              2.802787             32.714914
130683776             15.809691              3.672659             33.199852
130683776             14.458096              5.538102             33.348342
130683776             17.050232              9.482872             32.432565
300
Atoms. Timestep: 10
130683808      15.4914155471834                     5      34.6713112554701
130683808      15.4914155471834                     5      37.1313112554701
130683808      15.4914155471834                     5      39.5913112554701
130683808      15.4914155471834                     5      42.0513112554701
130683808      15.4914155471834                     5      44.5113112554701
130683808      15.4914155471834                     5      46.9713112554701
130683808      15.4914155471834                     5      49.4313112554701
130683808     0.501177547183375                     5      33.4413112554701
130683808     0.501177547183375                     5      35.9013112554701
130683808     0.501177547183375                     5      38.3613112554701
130683808     0.501177547183375                     5      40.8213112554701
130683808     0.501177547183375                     5      43.2813112554701
130683808     0.501177547183375                     5      45.7413112554701
130683808     0.501177547183375                     5      48.2013112554701
130683808      16.9191705471834                     5      34.6713112554701
130683808      16.9191705471834                     5      37.1313112554701
130683808      16.9191705471834                     5      39.5913112554701
130683808      16.9191705471834                     5      42.0513112554701
130683808      16.9191705471834                     5      44.5113112554701
130683808      16.9191705471834                     5      46.9713112554701
130683808      16.9191705471834                     5      49.4313112554701
130683808      1.92893354718338                     5      33.4413112554701
130683808      1.92893354718338                     5      35.9013112554701
130683808      1.92893354718338                     5      38.3613112554701
130683808      1.92893354718338                     5      40.8213112554701
130683808      1.92893354718338                     5      43.2813112554701
130683808      1.92893354718338                     5      45.7413112554701
130683808      1.92893354718338                     5      48.2013112554701
130683808      2.64264054718338                     5      34.6713112554701
130683808      2.64264054718338                     5      37.1313112554701
130683776      2.64264054718338                     5      39.5913112554701
130683776      2.64264054718338                     5      42.0513112554701
130683776      2.64264054718338                     5      44.5113112554701
130683776      2.64264054718338                     5      46.9713112554701
130683776      2.64264054718338                     5      49.4313112554701
130683776      4.78410254718337                     5      33.4413112554701
130683776      4.78410254718337                     5      35.9013112554701
130683776      4.78410254718337                     5      38.3613112554701
130683776      4.78410254718337                     5      40.8213112554701
130683776      4.78410254718337                     5      43.2813112554701
130683776      4.78410254718337                     5      45.7413112554701
130683776      4.78410254718337                     5      48.2013112554701
130683776      4.07039554718337                     5      34.6713112554701
130683776      4.07039554718337                     5      37.1313112554701
130683776      4.07039554718337                     5      39.5913112554701
130683776      4.07039554718337                     5      42.0513112554701
130683776      4.07039554718337                     5      44.5113112554701
130683776      4.07039554718337                     5      46.9713112554701
130683776      4.07039554718337                     5      49.4313112554701
130683776      6.21185854718337                     5      33.4413112554701
130683776      6.21185854718337                     5      35.9013112554701
130683776      6.21185854718337                     5      38.3613112554701
130683776      6.21185854718337                     5      40.8213112554701
130683776      6.21185854718337                     5      43.2813112554701
130683776      6.21185854718337                     5      45.7413112554701
130683776      6.21185854718337                     5      48.2013112554701
130683776      6.92556554718337                     5      34.6713112554701
130683776      6.92556554718337                     5      37.1313112554701
130683776      6.92556554718337                     5      39.5913112554701
130683776      6.92556554718337                     5      42.0513112554701
130683776      6.92556554718337                     5      44.5113112554701
130683776      6.92556554718337                     5      46.9713112554701
130683776      6.92556554718337                     5      49.4313112554701
130683776      9.06702754718337                     5      33.4413112554701
130683776      9.06702754718337                     5      35.9013112554701
130683776      9.06702754718337                     5      38.3613112554701
130683776      9.06702754718337                     5      40.8213112554701
130683776      9.06702754718337                     5      43.2813112554701
130683776      9.06702754718337                     5      45.7413112554701
130683776      9.06702754718337                     5      48.2013112554701
130683776      8.35332054718337                     5      34.6713112554701
130683776      8.35332054718337                     5      37.1313112554701
130683776      8.35332054718337                     5      39.5913112554701
130683776      8.35332054718337                     5      42.0513112554701
130683776      8.35332054718337                     5      44.5113112554701
130683776      8.35332054718337                     5      46.9713112554701
130683776      8.35332054718337                     5      49.4313112554701
130683776      10.4947835471834                     5      33.4413112554701
130683776      10.4947835471834                     5      35.9013112554701
130683776      10.4947835471834                     5      38.3613112554701
130683776      10.4947835471834                     5      40.8213112554701
130683776      10.4947835471834                     5      43.2813112554701
130683776      10.4947835471834                     5      45.7413112554701
130683776      10.4947835471834                     5      48.2013112554701
130683776      11.2084905471834                     5      34.6713112554701
130683776      11.2084905471834                     5      37.1313112554701
130683776      11.2084905471834                     5      39.5913112554701
130683776      11.2084905471834                     5      42.0513112554701
130683776      11.2084905471834                     5      44.5113112554701
130683776      11.2084905471834                     5      46.9713112554701
130683776      11.2084905471834                     5      49.4313112554701
130683776      13.3499525471834                     5      33.4413112554701
130683776      13.3499525471834                     5      35.9013112554701
130683776      13.3499525471834                     5      38.3613112554701