search structure

300 atoms
2  atom types

0   17.131700 xlo xhi
0   10.000000 ylo yhi
0   50.000000 zlo zhi

Atoms

1 2 15.488267 5.000000 34.664296
2 2 15.488267 5.000000 37.124296
3 2 15.488267 5.000000 39.584296
4 2 15.488267 5.000000 42.044296
5 2 15.488267 5.000000 44.504296
6 2 15.488267 5.000000 46.964296
7 2 15.488267 5.000000 49.424296
8 2 0.498029 5.000000 33.434296
9 2 0.498029 5.000000 35.894296
10 2 0.498029 5.000000 38.354296
11 2 0.498029 5.000000 40.814296
12 2 0.498029 5.000000 43.274296
13 2 0.498029 5.000000 45.734296
14 2 0.498029 5.000000 48.194296
15 2 16.916022 5.000000 34.664296
16 2 16.916022 5.000000 37.124296
17 2 16.916022 5.000000 39.584296
18 2 16.916022 5.000000 42.044296
19 2 16.916022 5.000000 44.504296
20 2 16.916022 5.000000 46.964296
21 2 16.916022 5.000000 49.424296
22 2 1.925785 5.000000 33.434296
23 2 1.925785 5.000000 35.894296
24 2 1.925785 5.000000 38.354296
25 2 1.925785 5.000000 40.814296
26 2 1.925785 5.000000 43.274296
27 2 1.925785 5.000000 45.734296
28 2 1.925785 5.000000 48.194296
29 2 2.639492 5.000000 34.664296
30 2 2.639492 5.000000 37.124296
31 1 2.639492 5.000000 39.584296
32 1 2.639492 5.000000 42.044296
33 1 2.639492 5.000000 44.504296
34 1 2.639492 5.000000 46.964296
35 1 2.639492 5.000000 49.424296
36 1 4.780954 5.000000 33.434296
37 1 4.780954 5.000000 35.894296
38 1 4.780954 5.000000 38.354296
39 1 4.780954 5.000000 40.814296
40 1 4.780954 5.000000 43.274296
41 1 4.780954 5.000000 45.734296
42 1 4.780954 5.000000 48.194296
43 1 4.067247 5.000000 34.664296
44 1 4.067247 5.000000 37.124296
45 1 4.067247 5.000000 39.584296
46 1 4.067247 5.000000 42.044296
47 1 4.067247 5.000000 44.504296
48 1 4.067247 5.000000 46.964296
49 1 4.067247 5.000000 49.424296
50 1 6.208710 5.000000 33.434296
51 1 6.208710 5.000000 35.894296
52 1 6.208710 5.000000 38.354296
53 1 6.208710 5.000000 40.814296
54 1 6.208710 5.000000 43.274296
55 1 6.208710 5.000000 45.734296
56 1 6.208710 5.000000 48.194296
57 1 6.922417 5.000000 34.664296
58 1 6.922417 5.000000 37.124296
59 1 6.922417 5.000000 39.584296
60 1 6.922417 5.000000 42.044296
61 1 6.922417 5.000000 44.504296
62 1 6.922417 5.000000 46.964296
63 1 6.922417 5.000000 49.424296
64 1 9.063879 5.000000 33.434296
65 1 9.063879 5.000000 35.894296
66 1 9.063879 5.000000 38.354296
67 1 9.063879 5.000000 40.814296
68 1 9.063879 5.000000 43.274296
69 1 9.063879 5.000000 45.734296
70 1 9.063879 5.000000 48.194296
71 1 8.350172 5.000000 34.664296
72 1 8.350172 5.000000 37.124296
73 1 8.350172 5.000000 39.584296
74 1 8.350172 5.000000 42.044296
75 1 8.350172 5.000000 44.504296
76 1 8.350172 5.000000 46.964296
77 1 8.350172 5.000000 49.424296
78 1 10.491635 5.000000 33.434296
79 1 10.491635 5.000000 35.894296
80 1 10.491635 5.000000 38.354296
81 1 10.491635 5.000000 40.814296
82 1 10.491635 5.000000 43.274296
83 1 10.491635 5.000000 45.734296
84 1 10.491635 5.000000 48.194296
85 1 11.205342 5.000000 34.664296
86 1 11.205342 5.000000 37.124296
87 1 11.205342 5.000000 39.584296
88 1 11.205342 5.000000 42.044296
89 1 11.205342 5.000000 44.504296
90 1 11.205342 5.000000 46.964296
91 1 11.205342 5.000000 49.424296
92 1 13.346804 5.000000 33.434296
93 1 13.346804 5.000000 35.894296
94 1 13.346804 5.000000 38.354296
95 1 13.346804 5.000000 40.814296
96 1 13.346804 5.000000 43.274296
97 1 13.346804 5.000000 45.734296
98 1 13.346804 5.000000 48.194296
99 1 12.633097 5.000000 34.664296
100 1 12.633097 5.000000 37.124296
101 1 12.633097 5.000000 39.584296
102 1 12.633097 5.000000 42.044296
103 1 12.633097 5.000000 44.504296
104 1 12.633097 5.000000 46.964296
105 1 12.633097 5.000000 49.424296
106 1 14.774560 5.000000 33.434296
107 1 14.774560 5.000000 35.894296
108 1 14.774560 5.000000 38.354296
109 1 14.774560 5.000000 40.814296
110 1 14.774560 5.000000 43.274296
111 1 14.774560 5.000000 45.734296
112 1 14.774560 5.000000 48.194296
113 2 14.918124 5.000000 50.411796
114 2 0.354294 5.000000 50.411796
115 2 2.071576 5.000000 50.412796
116 2 4.637219 5.000000 50.411796
117 2 6.354501 5.000000 50.412796
118 2 8.920144 5.000000 50.411796
119 2 10.637426 5.000000 50.412796
120 2 13.203069 5.000000 50.411796
121 1 -0.039917 5.000000 8.565500
122 1 -0.039917 5.000000 12.826500
123 1 -0.039917 5.000000 17.087500
124 1 -0.039917 5.000000 21.348000
125 1 -0.039917 5.000000 9.986000
126 1 -0.039917 5.000000 14.246500
127 1 -0.039917 5.000000 18.507500
128 1 -0.039917 5.000000 22.768500
129 1 15.868066 5.000000 10.696000
130 1 15.868066 5.000000 14.957000
131 1 15.868066 5.000000 19.217500
132 1 15.868066 5.000000 23.478500
133 1 15.868066 5.000000 7.855500
134 1 15.868066 5.000000 12.116500
135 1 15.868066 5.000000 16.377000
136 1 15.868066 5.000000 20.638000
137 1 14.644348 5.000000 8.565500
138 1 14.644348 5.000000 12.826500
139 1 14.644348 5.000000 17.087500
140 1 14.644348 5.000000 21.348000
141 1 13.420631 5.000000 10.696000
142 1 13.420631 5.000000 14.957000
143 1 13.420631 5.000000 19.217500
144 1 13.420631 5.000000 23.478500
145 1 14.644348 5.000000 9.986000
146 1 14.644348 5.000000 14.246500
147 1 14.644348 5.000000 18.507500
148 1 14.644348 5.000000 22.768500
149 1 13.420631 5.000000 7.855500
150 1 13.420631 5.000000 12.116500
151 1 13.420631 5.000000 16.377000
152 1 13.420631 5.000000 20.638000
153 1 12.197085 5.000000 8.565500
154 1 12.197085 5.000000 12.826500
155 1 12.197085 5.000000 17.087500
156 1 12.197085 5.000000 21.348000
157 1 10.973368 5.000000 10.696000
158 1 10.973368 5.000000 14.957000
159 1 10.973368 5.000000 19.217500
160 1 10.973368 5.000000 23.478500
161 1 12.197085 5.000000 9.986000
162 1 12.197085 5.000000 14.246500
163 1 12.197085 5.000000 18.507500
164 1 12.197085 5.000000 22.768500
165 1 10.973368 5.000000 7.855500
166 1 10.973368 5.000000 12.116500
167 1 10.973368 5.000000 16.377000
168 1 10.973368 5.000000 20.638000
169 1 9.749650 5.000000 8.565500
170 1 9.749650 5.000000 12.826500
171 1 9.749650 5.000000 17.087500
172 1 9.749650 5.000000 21.348000
173 1 8.525933 5.000000 10.696000
174 1 8.525933 5.000000 14.957000
175 1 8.525933 5.000000 19.217500
176 1 8.525933 5.000000 23.478500
177 1 9.749650 5.000000 9.986000
178 1 9.749650 5.000000 14.246500
179 1 9.749650 5.000000 18.507500
180 1 9.749650 5.000000 22.768500
181 1 8.525933 5.000000 7.855500
182 1 8.525933 5.000000 12.116500
183 1 8.525933 5.000000 16.377000
184 1 8.525933 5.000000 20.638000
185 1 7.302216 5.000000 8.565500
186 1 7.302216 5.000000 12.826500
187 1 7.302216 5.000000 17.087500
188 1 7.302216 5.000000 21.348000
189 1 6.078498 5.000000 10.696000
190 1 6.078498 5.000000 14.957000
191 1 6.078498 5.000000 19.217500
192 1 6.078498 5.000000 23.478500
193 1 7.302216 5.000000 9.986000
194 1 7.302216 5.000000 14.246500
195 1 7.302216 5.000000 18.507500
196 1 7.302216 5.000000 22.768500
197 1 6.078498 5.000000 7.855500
198 1 6.078498 5.000000 12.116500
199 1 6.078498 5.000000 16.377000
200 1 6.078498 5.000000 20.638000
201 1 4.854781 5.000000 8.565500
202 1 4.854781 5.000000 12.826500
203 1 4.854781 5.000000 17.087500
204 1 4.854781 5.000000 21.348000
205 1 3.631235 5.000000 10.696000
206 1 3.631235 5.000000 14.957000
207 1 3.631235 5.000000 19.217500
208 1 3.631235 5.000000 23.478500
209 1 4.854781 5.000000 9.986000
210 1 4.854781 5.000000 14.246500
211 1 4.854781 5.000000 18.507500
212 1 4.854781 5.000000 22.768500
213 1 3.631235 5.000000 7.855500
214 1 3.631235 5.000000 12.116500
215 1 3.631235 5.000000 16.377000
216 1 3.631235 5.000000 20.638000
217 1 2.407518 5.000000 8.565500
218 1 2.407518 5.000000 12.826500
219 1 2.407518 5.000000 17.087500
220 1 2.407518 5.000000 21.348000
221 1 1.183800 5.000000 10.696000
222 1 1.183800 5.000000 14.957000
223 1 1.183800 5.000000 19.217500
224 1 1.183800 5.000000 23.478500
225 1 2.407518 5.000000 9.986000
226 1 2.407518 5.000000 14.246500
227 1 2.407518 5.000000 18.507500
228 1 2.407518 5.000000 22.768500
229 1 1.183800 5.000000 7.855500
230 1 1.183800 5.000000 12.116500
231 1 1.183800 5.000000 16.377000
232 1 1.183800 5.000000 20.638000
233 2 15.865667 5.000000 6.715500
234 2 13.423030 5.000000 6.715500
235 2 10.975766 5.000000 6.715500
236 2 8.528332 5.000000 6.715500
237 2 6.080897 5.000000 6.715500
238 2 3.633634 5.000000 6.715500
239 2 1.181402 5.000000 6.715500
240 2 5.597980 0.184754 25.802995
241 2 2.880594 5.965546 24.759702
242 2 10.911197 9.112424 25.432013
243 2 6.972595 9.150966 25.351571
244 2 13.861795 2.930523 24.562222
245 2 11.369338 5.351043 25.461942
246 2 11.914470 6.626784 25.239361
247 2 12.177218 8.234496 24.150901
248 2 16.510668 9.919260 25.068228
249 2 1.050113 2.142132 28.695799
250 2 7.840518 2.392641 29.033237
251 2 3.709378 3.729654 26.517907
252 2 9.579264 8.199951 28.346574
253 2 14.263921 0.929758 28.669866
254 2 14.447370 1.341355 26.317119
255 2 16.464629 2.315867 26.083578
256 2 16.397815 2.553844 26.689545
257 2 13.717031 7.409912 26.611667
258 2 5.834757 1.919436 30.048989
259 2 4.296838 6.981269 30.509728
260 2 7.385409 8.373287 29.425594
261 2 5.708826 8.869317 29.534187
262 2 7.939779 9.901585 30.587139
263 2 11.481904 1.350754 33.032436
264 2 16.462554 1.351038 32.537599
265 2 15.595770 3.673163 29.569259
266 2 13.292511 4.157058 32.244970
267 2 8.027485 9.103012 29.554930
268 1 8.303501 1.115950 26.308026
269 1 9.615568 2.455851 24.430269
270 1 9.282786 4.672174 25.935357
271 1 5.377950 8.628752 24.979772
272 1 8.069907 9.019507 25.608179
273 1 16.586052 1.235948 23.982760
274 1 15.369631 1.318698 25.484258
275 1 15.351886 3.961592 27.285247
276 1 12.941459 5.317655 24.245063
277 1 11.184535 7.648656 25.903093
278 1 13.569119 8.837635 26.936721
279 1 5.830581 0.426819 28.144328
280 1 4.757784 0.822403 29.234321
281 1 2.145333 1.096347 28.485372
282 1 4.883835 1.752513 28.435721
283 1 3.678572 5.680038 30.457117
284 1 6.833022 0.119408 29.287102
285 1 9.181481 1.596153 29.351889
286 1 16.440560 3.174093 28.311286
287 1 15.801646 8.891231 28.084277
288 1 9.750756 9.585678 29.096805
289 1 13.706878 9.892467 27.900365
290 1 2.959295 0.381625 31.415020
291 1 6.909457 4.008035 33.096948
292 1 8.452394 4.795800 31.465202
293 1 2.652754 5.399365 33.192920
294 1 8.335612 7.328532 30.549829
295 1 10.434367 0.952976 31.920756
296 1 11.039379 2.258571 32.653685
297 1 10.836969 2.802787 32.714914
298 1 15.809691 3.672659 33.199852
299 1 14.458096 5.538102 33.348342
300 1 17.050232 9.482872 32.432565
