300
Atoms. Timestep: 0
110068640              1.871132                     5               34.3065
110068640              1.871132                     5               36.7665
110068640              1.871132                     5               39.2265
110068640              1.871132                     5               41.6865
110068640              1.871132                     5               44.1465
110068640              1.871132                     5               46.6065
110068640              1.871132                     5               49.0665
110068640              4.012595                     5               33.0765
110068640              4.012595                     5               35.5365
110068640              4.012595                     5               37.9965
110068640              4.012595                     5               40.4565
110068640              4.012595                     5               42.9165
110068640              4.012595                     5               45.3765
110068640              4.012595                     5               47.8365
110068640              3.298888                     5               34.3065
110068640              3.298888                     5               36.7665
110068640              3.298888                     5               39.2265
110068640              3.298888                     5               41.6865
110068640              3.298888                     5               44.1465
110068640              3.298888                     5               46.6065
110068640              3.298888                     5               49.0665
110068640              5.440351                     5               33.0765
110068640              5.440351                     5               35.5365
110068640              5.440351                     5               37.9965
110068640              5.440351                     5               40.4565
110068640              5.440351                     5               42.9165
110068640              5.440351                     5               45.3765
110068640              5.440351                     5               47.8365
110068640              6.154057                     5               34.3065
110068640              6.154057                     5               36.7665
110068608              6.154057                     5               39.2265
110068608              6.154057                     5               41.6865
110068608              6.154057                     5               44.1465
110068608              6.154057                     5               46.6065
110068608              6.154057                     5               49.0665
110068608               8.29552                     5               33.0765
110068608               8.29552                     5               35.5365
110068608               8.29552                     5               37.9965
110068608               8.29552                     5               40.4565
110068608               8.29552                     5               42.9165
110068608               8.29552                     5               45.3765
110068608               8.29552                     5               47.8365
110068608              7.581813                     5               34.3065
110068608              7.581813                     5               36.7665
110068608              7.581813                     5               39.2265
110068608              7.581813                     5               41.6865
110068608              7.581813                     5               44.1465
110068608              7.581813                     5               46.6065
110068608              7.581813                     5               49.0665
110068608              9.723276                     5               33.0765
110068608              9.723276                     5               35.5365
110068608              9.723276                     5               37.9965
110068608              9.723276                     5               40.4565
110068608              9.723276                     5               42.9165
110068608              9.723276                     5               45.3765
110068608              9.723276                     5               47.8365
110068608             10.436982                     5               34.3065
110068608             10.436982                     5               36.7665
110068608             10.436982                     5               39.2265
110068608             10.436982                     5               41.6865
110068608             10.436982                     5               44.1465
110068608             10.436982                     5               46.6065
110068608             10.436982                     5               49.0665
110068608             12.578445                     5               33.0765
110068608             12.578445                     5               35.5365
110068608             12.578445                     5               37.9965
110068608             12.578445                     5               40.4565
110068608             12.578445                     5               42.9165
110068608             12.578445                     5               45.3765
110068608             12.578445                     5               47.8365
110068608             11.864738                     5               34.3065
110068608             11.864738                     5               36.7665
110068608             11.864738                     5               39.2265
110068608             11.864738                     5               41.6865
110068608             11.864738                     5               44.1465
110068608             11.864738                     5               46.6065
110068608             11.864738                     5               49.0665
110068608             14.006201                     5               33.0765
110068608             14.006201                     5               35.5365
110068608             14.006201                     5               37.9965
110068608             14.006201                     5               40.4565
110068608             14.006201                     5               42.9165
110068608             14.006201                     5               45.3765
110068608             14.006201                     5               47.8365
110068608             14.719907                     5               34.3065
110068608             14.719907                     5               36.7665
110068608             14.719907                     5               39.2265
110068608             14.719907                     5               41.6865
110068608             14.719907                     5               44.1465
110068608             14.719907                     5               46.6065
110068608             14.719907                     5               49.0665
110068608              16.86137                     5               33.0765
110068608              16.86137                     5               35.5365
110068608              16.86137                     5               37.9965
110068608              16.86137                     5               40.4565
110068608              16.86137                     5               42.9165
110068608              16.86137                     5               45.3765
110068608              16.86137                     5               47.8365
110068608             16.147663                     5               34.3065
110068608             16.147663                     5               36.7665
110068608             16.147663                     5               39.2265
110068608             16.147663                     5               41.6865
110068608             16.147663                     5               44.1465
110068608             16.147663                     5               46.6065
110068608             16.147663                     5               49.0665
110068608              1.157426                     5               33.0765
110068608              1.157426                     5               35.5365
110068608              1.157426                     5               37.9965
110068608              1.157426                     5               40.4565
110068608              1.157426                     5               42.9165
110068608              1.157426                     5               45.3765
110068608              1.157426                     5               47.8365
110068640              1.300989                     5     0.054000000000002
110068640               3.86886                     5     0.054000000000002
110068640              5.586141                     5    0.0549999999999997
110068640              8.151785                     5     0.054000000000002
110068640              9.869066                     5    0.0549999999999997
110068640              12.43471                     5     0.054000000000002
110068640             14.151991                     5    0.0549999999999997
110068640             16.717635                     5     0.054000000000002
110068608             17.091783                     5                8.5655
110068608             17.091783                     5               12.8265
110068608             17.091783                     5               17.0875
110068608             17.091783                     5                21.348
110068608             17.091783                     5                 9.986
110068608             17.091783                     5               14.2465
110068608             17.091783                     5               18.5075
110068608             17.091783                     5               22.7685
110068608             15.868066                     5                10.696
110068608             15.868066                     5                14.957
110068608             15.868066                     5               19.2175
110068608             15.868066                     5               23.4785
110068608             15.868066                     5                7.8555
110068608             15.868066                     5               12.1165
110068608             15.868066                     5                16.377
110068608             15.868066                     5                20.638
110068608             14.644348                     5                8.5655
110068608             14.644348                     5               12.8265
110068608             14.644348                     5               17.0875
110068608             14.644348                     5                21.348
110068608             13.420631                     5                10.696
110068608             13.420631                     5                14.957
110068608             13.420631                     5               19.2175
110068608             13.420631                     5               23.4785
110068608             14.644348                     5                 9.986
110068608             14.644348                     5               14.2465
110068608             14.644348                     5               18.5075
110068608             14.644348                     5               22.7685
110068608             13.420631                     5                7.8555
110068608             13.420631                     5               12.1165
110068608             13.420631                     5                16.377
110068608             13.420631                     5                20.638
110068608             12.197085                     5                8.5655
110068608             12.197085                     5               12.8265
110068608             12.197085                     5               17.0875
110068608             12.197085                     5                21.348
110068608             10.973368                     5                10.696
110068608             10.973368                     5                14.957
110068608             10.973368                     5               19.2175
110068608             10.973368                     5               23.4785
110068608             12.197085                     5                 9.986
110068608             12.197085                     5               14.2465
110068608             12.197085                     5               18.5075
110068608             12.197085                     5               22.7685
110068608             10.973368                     5                7.8555
110068608             10.973368                     5               12.1165
110068608             10.973368                     5                16.377
110068608             10.973368                     5                20.638
110068608               9.74965                     5                8.5655
110068608               9.74965                     5               12.8265
110068608               9.74965                     5               17.0875
110068608               9.74965                     5                21.348
110068608              8.525933                     5                10.696
110068608              8.525933                     5                14.957
110068608              8.525933                     5               19.2175
110068608              8.525933                     5               23.4785
110068608               9.74965                     5                 9.986
110068608               9.74965                     5               14.2465
110068608               9.74965                     5               18.5075
110068608               9.74965                     5               22.7685
110068608              8.525933                     5                7.8555
110068608              8.525933                     5               12.1165
110068608              8.525933                     5                16.377
110068608              8.525933                     5                20.638
110068608              7.302216                     5                8.5655
110068608              7.302216                     5               12.8265
110068608              7.302216                     5               17.0875
110068608              7.302216                     5                21.348
110068608              6.078498                     5                10.696
110068608              6.078498                     5                14.957
110068608              6.078498                     5               19.2175
110068608              6.078498                     5               23.4785
110068608              7.302216                     5                 9.986
110068608              7.302216                     5               14.2465
110068608              7.302216                     5               18.5075
110068608              7.302216                     5               22.7685
110068608              6.078498                     5                7.8555
110068608              6.078498                     5               12.1165
110068608              6.078498                     5                16.377
110068608              6.078498                     5                20.638
110068608              4.854781                     5                8.5655
110068608              4.854781                     5               12.8265
110068608              4.854781                     5               17.0875
110068608              4.854781                     5                21.348
110068608              3.631235                     5                10.696
110068608              3.631235                     5                14.957
110068608              3.631235                     5               19.2175
110068608              3.631235                     5               23.4785
110068608              4.854781                     5                 9.986
110068608              4.854781                     5               14.2465
110068608              4.854781                     5               18.5075
110068608              4.854781                     5               22.7685
110068608              3.631235                     5                7.8555
110068608              3.631235                     5               12.1165
110068608              3.631235                     5                16.377
110068608              3.631235                     5                20.638
110068608              2.407518                     5                8.5655
110068608              2.407518                     5               12.8265
110068608              2.407518                     5               17.0875
110068608              2.407518                     5                21.348
110068608                1.1838                     5                10.696
110068608                1.1838                     5                14.957
110068608                1.1838                     5               19.2175
110068608                1.1838                     5               23.4785
110068608              2.407518                     5                 9.986
110068608              2.407518                     5               14.2465
110068608              2.407518                     5               18.5075
110068608              2.407518                     5               22.7685
110068608                1.1838                     5                7.8555
110068608                1.1838                     5               12.1165
110068608                1.1838                     5                16.377
110068608                1.1838                     5                20.638
110068640             15.865667                     5                6.7155
110068640              13.42303                     5                6.7155
110068640             10.975766                     5                6.7155
110068640              8.528332                     5                6.7155
110068640              6.080897                     5                6.7155
110068640              3.633634                     5                6.7155
110068640              1.181402                     5                6.7155
110068640              7.553772              2.578994             26.648783
110068640             14.166497              4.825038             25.232145
110068640             12.354375              9.450995             25.695552
110068640              6.372017              7.974032             26.693644
110068640              9.992152              0.805757             26.161964
110068640             12.805318              9.765018             23.868169
110068640              3.314583              0.202023                  23.5
110068640              13.73268              9.093964             24.201081
110068640              7.992131              4.929859             26.220121
110068640              4.657059              4.356935             28.578698
110068640              3.383713              8.358724             26.621477
110068640              4.294584              2.343719             26.041484
110068640              2.470803               8.94981             28.217895
110068640              6.426193              2.287198             25.045412
110068640             15.484915              5.620658             26.462217
110068640              9.044061               6.98522             26.465539
110068640              1.155059              9.310614             27.938434
110068640              9.638775              9.422181             28.038828
110068640              3.038703              6.057381                    33
110068640              1.935734              4.889536             31.472776
110068640              4.331803              5.080526                    33
110068640              2.573932              8.198946             31.288743
110068640              5.500557              8.602149             28.393757
110068640              4.230266              7.102213             29.761215
110068640             16.768499              6.256741             30.849559
110068640                1.0777               0.36017                    33
110068640              13.67644               1.39488             28.842335
110068640             13.264363              7.709122                    33
110068608              9.076901              5.811641             24.922023
110068608               2.44739              5.243486                  23.5
110068608              8.055593              4.611629             25.386584
110068608              5.504324              6.374027             25.763432
110068608              0.332289              5.872242             25.192721
110068608              17.13079               9.20046                  23.5
110068608             14.601626              9.425578             25.410418
110068608             14.243794              5.420766             24.286718
110068608             10.363559              4.272725              24.07078
110068608              10.53669              4.881762                  23.5
110068608             11.018696              7.794784                  23.5
110068608             15.498237              4.825327             28.119585
110068608              2.730058              7.282389              23.69903
110068608              4.709548              3.110311             25.983574
110068608             16.344045              1.177739             27.525735
110068608               0.83538              8.506673             28.257702
110068608              8.040789              7.297125             24.582471
110068608             13.672496              8.262404             27.355751
110068608             15.077007              9.577389             30.924759
110068608             13.332085              5.877837             27.373221
110068608              7.756612              8.116547             25.003058
110068608               6.14874              7.992207             24.872354
110068608             10.121023              3.216223             32.802551
110068608             15.265681              0.551977                    33
110068608              0.378628              3.935803             31.687247
110068608              0.124268              6.848121             31.515989
110068608             13.583574              9.401231             31.640392
110068608              0.699372               5.56046             32.839075
110068608             11.324505              5.085009                    33
110068608             16.832516              2.748723             30.013339
110068608              6.721191               7.19036             30.538549
110068608             13.662518              7.868964              28.68344
110068608              4.064066              8.306862             31.990383
300
Atoms. Timestep: 10
110068640      1.87355888123167                     5      34.3120415299754
110068640      1.87355888123167                     5      36.7720415299754
110068640      1.87355888123167                     5      39.2320415299754
110068640      1.87355888123167                     5      41.6920415299754
110068640      1.87355888123167                     5      44.1520415299754
110068640      1.87355888123167                     5      46.6120415299754
110068640      1.87355888123167                     5      49.0720415299754
110068640      4.01502188123167                     5      33.0820415299754
110068640      4.01502188123167                     5      35.5420415299754
110068640      4.01502188123167                     5      38.0020415299754
110068640      4.01502188123167                     5      40.4620415299754
110068640      4.01502188123167                     5      42.9220415299754
110068640      4.01502188123167                     5      45.3820415299754
110068640      4.01502188123167                     5      47.8420415299754
110068640      3.30131488123167                     5      34.3120415299754
110068640      3.30131488123167                     5      36.7720415299754
110068640      3.30131488123167                     5      39.2320415299754
110068640      3.30131488123167                     5      41.6920415299754
110068640      3.30131488123167                     5      44.1520415299754
110068640      3.30131488123167                     5      46.6120415299754
110068640      3.30131488123167                     5      49.0720415299754
110068640      5.44277788123167                     5      33.0820415299754
110068640      5.44277788123167                     5      35.5420415299754
110068640      5.44277788123167                     5      38.0020415299754
110068640      5.44277788123167                     5      40.4620415299754
110068640      5.44277788123167                     5      42.9220415299754
110068640      5.44277788123167                     5      45.3820415299754
110068640      5.44277788123167                     5      47.8420415299754
110068640      6.15648388123167                     5      34.3120415299754
110068640      6.15648388123167                     5      36.7720415299754
110068608      6.15648388123167                     5      39.2320415299754
110068608      6.15648388123167                     5      41.6920415299754
110068608      6.15648388123167                     5      44.1520415299754
110068608      6.15648388123167                     5      46.6120415299754
110068608      6.15648388123167                     5      49.0720415299754
110068608      8.29794688123168                     5      33.0820415299754
110068608      8.29794688123168                     5      35.5420415299754
110068608      8.29794688123168                     5      38.0020415299754
110068608      8.29794688123168                     5      40.4620415299754
110068608      8.29794688123168                     5      42.9220415299754
110068608      8.29794688123168                     5      45.3820415299754
110068608      8.29794688123168                     5      47.8420415299754
110068608      7.58423988123167                     5      34.3120415299754
110068608      7.58423988123167                     5      36.7720415299754
110068608      7.58423988123167                     5      39.2320415299754
110068608      7.58423988123167                     5      41.6920415299754
110068608      7.58423988123167                     5      44.1520415299754
110068608      7.58423988123167                     5      46.6120415299754
110068608      7.58423988123167                     5      49.0720415299754
110068608      9.72570288123168                     5      33.0820415299754
110068608      9.72570288123168                     5      35.5420415299754
110068608      9.72570288123168                     5      38.0020415299754
110068608      9.72570288123168                     5      40.4620415299754
110068608      9.72570288123168                     5      42.9220415299754
110068608      9.72570288123168                     5      45.3820415299754
110068608      9.72570288123168                     5      47.8420415299754
110068608      10.4394088812317                     5      34.3120415299754
110068608      10.4394088812317                     5      36.7720415299754
110068608      10.4394088812317                     5      39.2320415299754
110068608      10.4394088812317                     5      41.6920415299754
110068608      10.4394088812317                     5      44.1520415299754
110068608      10.4394088812317                     5      46.6120415299754
110068608      10.4394088812317                     5      49.0720415299754
110068608      12.5808718812317                     5      33.0820415299754
110068608      12.5808718812317                     5      35.5420415299754
110068608      12.5808718812317                     5      38.0020415299754
110068608      12.5808718812317                     5      40.4620415299754
110068608      12.5808718812317                     5      42.9220415299754
110068608      12.5808718812317                     5      45.3820415299754
110068608      12.5808718812317                     5      47.8420415299754
110068608      11.8671648812317                     5      34.3120415299754
110068608      11.8671648812317                     5      36.7720415299754
110068608      11.8671648812317                     5      39.2320415299754
110068608      11.8671648812317                     5      41.6920415299754
110068608      11.8671648812317                     5      44.1520415299754
110068608      11.8671648812317                     5      46.6120415299754
110068608      11.8671648812317                     5      49.0720415299754
110068608      14.0086278812317                     5      33.0820415299754
110068608      14.0086278812317                     5      35.5420415299754
110068608      14.0086278812317                     5      38.0020415299754
110068608      14.0086278812317                     5      40.4620415299754
110068608      14.0086278812317                     5      42.9220415299754
110068608      14.0086278812317                     5      45.3820415299754
110068608      14.0086278812317                     5      47.8420415299754
110068608      14.7223338812317                     5      34.3120415299754
110068608      14.7223338812317                     5      36.7720415299754
110068608      14.7223338812317                     5      39.2320415299754
110068608      14.7223338812317                     5      41.6920415299754
110068608      14.7223338812317                     5      44.1520415299754
110068608      14.7223338812317                     5      46.6120415299754
110068608      14.7223338812317                     5      49.0720415299754
110068608      16.8637968812317                     5      33.0820415299754
110068608      16.8637968812317                     5      35.5420415299754
110068608      16.8637968812317                     5      38.0020415299754