search structure

300 atoms
2  atom types

0   17.131700 xlo xhi
0   10.000000 ylo yhi
0   50.000000 zlo zhi

Atoms

1 2 1.871132 5.000000 34.306500
2 2 1.871132 5.000000 36.766500
3 2 1.871132 5.000000 39.226500
4 2 1.871132 5.000000 41.686500
5 2 1.871132 5.000000 44.146500
6 2 1.871132 5.000000 46.606500
7 2 1.871132 5.000000 49.066500
8 2 4.012595 5.000000 33.076500
9 2 4.012595 5.000000 35.536500
10 2 4.012595 5.000000 37.996500
11 2 4.012595 5.000000 40.456500
12 2 4.012595 5.000000 42.916500
13 2 4.012595 5.000000 45.376500
14 2 4.012595 5.000000 47.836500
15 2 3.298888 5.000000 34.306500
16 2 3.298888 5.000000 36.766500
17 2 3.298888 5.000000 39.226500
18 2 3.298888 5.000000 41.686500
19 2 3.298888 5.000000 44.146500
20 2 3.298888 5.000000 46.606500
21 2 3.298888 5.000000 49.066500
22 2 5.440351 5.000000 33.076500
23 2 5.440351 5.000000 35.536500
24 2 5.440351 5.000000 37.996500
25 2 5.440351 5.000000 40.456500
26 2 5.440351 5.000000 42.916500
27 2 5.440351 5.000000 45.376500
28 2 5.440351 5.000000 47.836500
29 2 6.154057 5.000000 34.306500
30 2 6.154057 5.000000 36.766500
31 1 6.154057 5.000000 39.226500
32 1 6.154057 5.000000 41.686500
33 1 6.154057 5.000000 44.146500
34 1 6.154057 5.000000 46.606500
35 1 6.154057 5.000000 49.066500
36 1 8.295520 5.000000 33.076500
37 1 8.295520 5.000000 35.536500
38 1 8.295520 5.000000 37.996500
39 1 8.295520 5.000000 40.456500
40 1 8.295520 5.000000 42.916500
41 1 8.295520 5.000000 45.376500
42 1 8.295520 5.000000 47.836500
43 1 7.581813 5.000000 34.306500
44 1 7.581813 5.000000 36.766500
45 1 7.581813 5.000000 39.226500
46 1 7.581813 5.000000 41.686500
47 1 7.581813 5.000000 44.146500
48 1 7.581813 5.000000 46.606500
49 1 7.581813 5.000000 49.066500
50 1 9.723276 5.000000 33.076500
51 1 9.723276 5.000000 35.536500
52 1 9.723276 5.000000 37.996500
53 1 9.723276 5.000000 40.456500
54 1 9.723276 5.000000 42.916500
55 1 9.723276 5.000000 45.376500
56 1 9.723276 5.000000 47.836500
57 1 10.436982 5.000000 34.306500
58 1 10.436982 5.000000 36.766500
59 1 10.436982 5.000000 39.226500
60 1 10.436982 5.000000 41.686500
61 1 10.436982 5.000000 44.146500
62 1 10.436982 5.000000 46.606500
63 1 10.436982 5.000000 49.066500
64 1 12.578445 5.000000 33.076500
65 1 12.578445 5.000000 35.536500
66 1 12.578445 5.000000 37.996500
67 1 12.578445 5.000000 40.456500
68 1 12.578445 5.000000 42.916500
69 1 12.578445 5.000000 45.376500
70 1 12.578445 5.000000 47.836500
71 1 11.864738 5.000000 34.306500
72 1 11.864738 5.000000 36.766500
73 1 11.864738 5.000000 39.226500
74 1 11.864738 5.000000 41.686500
75 1 11.864738 5.000000 44.146500
76 1 11.864738 5.000000 46.606500
77 1 11.864738 5.000000 49.066500
78 1 14.006201 5.000000 33.076500
79 1 14.006201 5.000000 35.536500
80 1 14.006201 5.000000 37.996500
81 1 14.006201 5.000000 40.456500
82 1 14.006201 5.000000 42.916500
83 1 14.006201 5.000000 45.376500
84 1 14.006201 5.000000 47.836500
85 1 14.719907 5.000000 34.306500
86 1 14.719907 5.000000 36.766500
87 1 14.719907 5.000000 39.226500
88 1 14.719907 5.000000 41.686500
89 1 14.719907 5.000000 44.146500
90 1 14.719907 5.000000 46.606500
91 1 14.719907 5.000000 49.066500
92 1 16.861370 5.000000 33.076500
93 1 16.861370 5.000000 35.536500
94 1 16.861370 5.000000 37.996500
95 1 16.861370 5.000000 40.456500
96 1 16.861370 5.000000 42.916500
97 1 16.861370 5.000000 45.376500
98 1 16.861370 5.000000 47.836500
99 1 16.147663 5.000000 34.306500
100 1 16.147663 5.000000 36.766500
101 1 16.147663 5.000000 39.226500
102 1 16.147663 5.000000 41.686500
103 1 16.147663 5.000000 44.146500
104 1 16.147663 5.000000 46.606500
105 1 16.147663 5.000000 49.066500
106 1 1.157426 5.000000 33.076500
107 1 1.157426 5.000000 35.536500
108 1 1.157426 5.000000 37.996500
109 1 1.157426 5.000000 40.456500
110 1 1.157426 5.000000 42.916500
111 1 1.157426 5.000000 45.376500
112 1 1.157426 5.000000 47.836500
113 2 1.300989 5.000000 50.054000
114 2 3.868860 5.000000 50.054000
115 2 5.586141 5.000000 50.055000
116 2 8.151785 5.000000 50.054000
117 2 9.869066 5.000000 50.055000
118 2 12.434710 5.000000 50.054000
119 2 14.151991 5.000000 50.055000
120 2 16.717635 5.000000 50.054000
121 1 -0.039917 5.000000 8.565500
122 1 -0.039917 5.000000 12.826500
123 1 -0.039917 5.000000 17.087500
124 1 -0.039917 5.000000 21.348000
125 1 -0.039917 5.000000 9.986000
126 1 -0.039917 5.000000 14.246500
127 1 -0.039917 5.000000 18.507500
128 1 -0.039917 5.000000 22.768500
129 1 15.868066 5.000000 10.696000
130 1 15.868066 5.000000 14.957000
131 1 15.868066 5.000000 19.217500
132 1 15.868066 5.000000 23.478500
133 1 15.868066 5.000000 7.855500
134 1 15.868066 5.000000 12.116500
135 1 15.868066 5.000000 16.377000
136 1 15.868066 5.000000 20.638000
137 1 14.644348 5.000000 8.565500
138 1 14.644348 5.000000 12.826500
139 1 14.644348 5.000000 17.087500
140 1 14.644348 5.000000 21.348000
141 1 13.420631 5.000000 10.696000
142 1 13.420631 5.000000 14.957000
143 1 13.420631 5.000000 19.217500
144 1 13.420631 5.000000 23.478500
145 1 14.644348 5.000000 9.986000
146 1 14.644348 5.000000 14.246500
147 1 14.644348 5.000000 18.507500
148 1 14.644348 5.000000 22.768500
149 1 13.420631 5.000000 7.855500
150 1 13.420631 5.000000 12.116500
151 1 13.420631 5.000000 16.377000
152 1 13.420631 5.000000 20.638000
153 1 12.197085 5.000000 8.565500
154 1 12.197085 5.000000 12.826500
155 1 12.197085 5.000000 17.087500
156 1 12.197085 5.000000 21.348000
157 1 10.973368 5.000000 10.696000
158 1 10.973368 5.000000 14.957000
159 1 10.973368 5.000000 19.217500
160 1 10.973368 5.000000 23.478500
161 1 12.197085 5.000000 9.986000
162 1 12.197085 5.000000 14.246500
163 1 12.197085 5.000000 18.507500
164 1 12.197085 5.000000 22.768500
165 1 10.973368 5.000000 7.855500
166 1 10.973368 5.000000 12.116500
167 1 10.973368 5.000000 16.377000
168 1 10.973368 5.000000 20.638000
169 1 9.749650 5.000000 8.565500
170 1 9.749650 5.000000 12.826500
171 1 9.749650 5.000000 17.087500
172 1 9.749650 5.000000 21.348000
173 1 8.525933 5.000000 10.696000
174 1 8.525933 5.000000 14.957000
175 1 8.525933 5.000000 19.217500
176 1 8.525933 5.000000 23.478500
177 1 9.749650 5.000000 9.986000
178 1 9.749650 5.000000 14.246500
179 1 9.749650 5.000000 18.507500
180 1 9.749650 5.000000 22.768500
181 1 8.525933 5.000000 7.855500
182 1 8.525933 5.000000 12.116500
183 1 8.525933 5.000000 16.377000
184 1 8.525933 5.000000 20.638000
185 1 7.302216 5.000000 8.565500
186 1 7.302216 5.000000 12.826500
187 1 7.302216 5.000000 17.087500
188 1 7.302216 5.000000 21.348000
189 1 6.078498 5.000000 10.696000
190 1 6.078498 5.000000 14.957000
191 1 6.078498 5.000000 19.217500
192 1 6.078498 5.000000 23.478500
193 1 7.302216 5.000000 9.986000
194 1 7.302216 5.000000 14.246500
195 1 7.302216 5.000000 18.507500
196 1 7.302216 5.000000 22.768500
197 1 6.078498 5.000000 7.855500
198 1 6.078498 5.000000 12.116500
199 1 6.078498 5.000000 16.377000
200 1 6.078498 5.000000 20.638000
201 1 4.854781 5.000000 8.565500
202 1 4.854781 5.000000 12.826500
203 1 4.854781 5.000000 17.087500
204 1 4.854781 5.000000 21.348000
205 1 3.631235 5.000000 10.696000
206 1 3.631235 5.000000 14.957000
207 1 3.631235 5.000000 19.217500
208 1 3.631235 5.000000 23.478500
209 1 4.854781 5.000000 9.986000
210 1 4.854781 5.000000 14.246500
211 1 4.854781 5.000000 18.507500
212 1 4.854781 5.000000 22.768500
213 1 3.631235 5.000000 7.855500
214 1 3.631235 5.000000 12.116500
215 1 3.631235 5.000000 16.377000
216 1 3.631235 5.000000 20.638000
217 1 2.407518 5.000000 8.565500
218 1 2.407518 5.000000 12.826500
219 1 2.407518 5.000000 17.087500
220 1 2.407518 5.000000 21.348000
221 1 1.183800 5.000000 10.696000
222 1 1.183800 5.000000 14.957000
223 1 1.183800 5.000000 19.217500
224 1 1.183800 5.000000 23.478500
225 1 2.407518 5.000000 9.986000
226 1 2.407518 5.000000 14.246500
227 1 2.407518 5.000000 18.507500
228 1 2.407518 5.000000 22.768500
229 1 1.183800 5.000000 7.855500
230 1 1.183800 5.000000 12.116500
231 1 1.183800 5.000000 16.377000
232 1 1.183800 5.000000 20.638000
233 2 15.865667 5.000000 6.715500
234 2 13.423030 5.000000 6.715500
235 2 10.975766 5.000000 6.715500
236 2 8.528332 5.000000 6.715500
237 2 6.080897 5.000000 6.715500
238 2 3.633634 5.000000 6.715500
239 2 1.181402 5.000000 6.715500
240 2 7.553772 2.578994 26.648783
241 2 14.166497 4.825038 25.232145
242 2 12.354375 9.450995 25.695552
243 2 6.372017 7.974032 26.693644
244 2 9.992152 0.805757 26.161964
245 2 12.805318 9.765018 23.868169
246 2 3.314583 0.202023 23.500000
247 2 13.732680 9.093964 24.201081
248 2 7.992131 4.929859 26.220121
249 2 4.657059 4.356935 28.578698
250 2 3.383713 8.358724 26.621477
251 2 4.294584 2.343719 26.041484
252 2 2.470803 8.949810 28.217895
253 2 6.426193 2.287198 25.045412
254 2 15.484915 5.620658 26.462217
255 2 9.044061 6.985220 26.465539
256 2 1.155059 9.310614 27.938434
257 2 9.638775 9.422181 28.038828
258 2 3.038703 6.057381 33.000000
259 2 1.935734 4.889536 31.472776
260 2 4.331803 5.080526 33.000000
261 2 2.573932 8.198946 31.288743
262 2 5.500557 8.602149 28.393757
263 2 4.230266 7.102213 29.761215
264 2 16.768499 6.256741 30.849559
265 2 1.077700 0.360170 33.000000
266 2 13.676440 1.394880 28.842335
267 2 13.264363 7.709122 33.000000
268 1 9.076901 5.811641 24.922023
269 1 2.447390 5.243486 23.500000
270 1 8.055593 4.611629 25.386584
271 1 5.504324 6.374027 25.763432
272 1 0.332289 5.872242 25.192721
273 1 17.130790 9.200460 23.500000
274 1 14.601626 9.425578 25.410418
275 1 14.243794 5.420766 24.286718
276 1 10.363559 4.272725 24.070780
277 1 10.536690 4.881762 23.500000
278 1 11.018696 7.794784 23.500000
279 1 15.498237 4.825327 28.119585
280 1 2.730058 7.282389 23.699030
281 1 4.709548 3.110311 25.983574
282 1 16.344045 1.177739 27.525735
283 1 0.835380 8.506673 28.257702
284 1 8.040789 7.297125 24.582471
285 1 13.672496 8.262404 27.355751
286 1 15.077007 9.577389 30.924759
287 1 13.332085 5.877837 27.373221
288 1 7.756612 8.116547 25.003058
289 1 6.148740 7.992207 24.872354
290 1 10.121023 3.216223 32.802551
291 1 15.265681 0.551977 33.000000
292 1 0.378628 3.935803 31.687247
293 1 0.124268 6.848121 31.515989
294 1 13.583574 9.401231 31.640392
295 1 0.699372 5.560460 32.839075
296 1 11.324505 5.085009 33.000000
297 1 16.832516 2.748723 30.013339
298 1 6.721191 7.190360 30.538549
299 1 13.662518 7.868964 28.683440
300 1 4.064066 8.306862 31.990383
