300
Atoms. Timestep: 0
428422048              3.810388                     5               34.3065
428422048              3.810388                     5               36.7665
428422048              3.810388                     5               39.2265
428422048              3.810388                     5               41.6865
428422048              3.810388                     5               44.1465
428422048              3.810388                     5               46.6065
428422048              3.810388                     5               49.0665
428422048               5.95185                     5               33.0765
428422048               5.95185                     5               35.5365
428422048               5.95185                     5               37.9965
428422048               5.95185                     5               40.4565
428422048               5.95185                     5               42.9165
428422048               5.95185                     5               45.3765
428422048               5.95185                     5               47.8365
428422048              5.238143                     5               34.3065
428422048              5.238143                     5               36.7665
428422048              5.238143                     5               39.2265
428422048              5.238143                     5               41.6865
428422048              5.238143                     5               44.1465
428422048              5.238143                     5               46.6065
428422048              5.238143                     5               49.0665
428422048              7.379606                     5               33.0765
428422048              7.379606                     5               35.5365
428422048              7.379606                     5               37.9965
428422048              7.379606                     5               40.4565
428422048              7.379606                     5               42.9165
428422048              7.379606                     5               45.3765
428422048              7.379606                     5               47.8365
428422048              8.093313                     5               34.3065
428422048              8.093313                     5               36.7665
428422016              8.093313                     5               39.2265
428422016              8.093313                     5               41.6865
428422016              8.093313                     5               44.1465
428422016              8.093313                     5               46.6065
428422016              8.093313                     5               49.0665
428422016             10.234775                     5               33.0765
428422016             10.234775                     5               35.5365
428422016             10.234775                     5               37.9965
428422016             10.234775                     5               40.4565
428422016             10.234775                     5               42.9165
428422016             10.234775                     5               45.3765
428422016             10.234775                     5               47.8365
428422016              9.521068                     5               34.3065
428422016              9.521068                     5               36.7665
428422016              9.521068                     5               39.2265
428422016              9.521068                     5               41.6865
428422016              9.521068                     5               44.1465
428422016              9.521068                     5               46.6065
428422016              9.521068                     5               49.0665
428422016             11.662531                     5               33.0765
428422016             11.662531                     5               35.5365
428422016             11.662531                     5               37.9965
428422016             11.662531                     5               40.4565
428422016             11.662531                     5               42.9165
428422016             11.662531                     5               45.3765
428422016             11.662531                     5               47.8365
428422016             12.376238                     5               34.3065
428422016             12.376238                     5               36.7665
428422016             12.376238                     5               39.2265
428422016             12.376238                     5               41.6865
428422016             12.376238                     5               44.1465
428422016             12.376238                     5               46.6065
428422016             12.376238                     5               49.0665
428422016               14.5177                     5               33.0765
428422016               14.5177                     5               35.5365
428422016               14.5177                     5               37.9965
428422016               14.5177                     5               40.4565
428422016               14.5177                     5               42.9165
428422016               14.5177                     5               45.3765
428422016               14.5177                     5               47.8365
428422016             13.803993                     5               34.3065
428422016             13.803993                     5               36.7665
428422016             13.803993                     5               39.2265
428422016             13.803993                     5               41.6865
428422016             13.803993                     5               44.1465
428422016             13.803993                     5               46.6065
428422016             13.803993                     5               49.0665
428422016             15.945456                     5               33.0765
428422016             15.945456                     5               35.5365
428422016             15.945456                     5               37.9965
428422016             15.945456                     5               40.4565
428422016             15.945456                     5               42.9165
428422016             15.945456                     5               45.3765
428422016             15.945456                     5               47.8365
428422016             16.659163                     5               34.3065
428422016             16.659163                     5               36.7665
428422016             16.659163                     5               39.2265
428422016             16.659163                     5               41.6865
428422016             16.659163                     5               44.1465
428422016             16.659163                     5               46.6065
428422016             16.659163                     5               49.0665
428422016              1.668925                     5               33.0765
428422016              1.668925                     5               35.5365
428422016              1.668925                     5               37.9965
428422016              1.668925                     5               40.4565
428422016              1.668925                     5               42.9165
428422016              1.668925                     5               45.3765
428422016              1.668925                     5               47.8365
428422016              0.955218                     5               34.3065
428422016              0.955218                     5               36.7665
428422016              0.955218                     5               39.2265
428422016              0.955218                     5               41.6865
428422016              0.955218                     5               44.1465
428422016              0.955218                     5               46.6065
428422016              0.955218                     5               49.0665
428422016              3.096681                     5               33.0765
428422016              3.096681                     5               35.5365
428422016              3.096681                     5               37.9965
428422016              3.096681                     5               40.4565
428422016              3.096681                     5               42.9165
428422016              3.096681                     5               45.3765
428422016              3.096681                     5               47.8365
428422048              3.240245                     5     0.054000000000002
428422048              5.808115                     5     0.054000000000002
428422048              7.525397                     5    0.0549999999999997
428422048              10.09104                     5     0.054000000000002
428422048             11.808322                     5    0.0549999999999997
428422048             14.373965                     5     0.054000000000002
428422048             16.091247                     5    0.0549999999999997
428422048               1.52519                     5     0.054000000000002
428422016             17.091783                     5                8.5655
428422016             17.091783                     5               12.8265
428422016             17.091783                     5               17.0875
428422016             17.091783                     5                21.348
428422016             17.091783                     5                 9.986
428422016             17.091783                     5               14.2465
428422016             17.091783                     5               18.5075
428422016             17.091783                     5               22.7685
428422016             15.868066                     5                10.696
428422016             15.868066                     5                14.957
428422016             15.868066                     5               19.2175
428422016             15.868066                     5               23.4785
428422016             15.868066                     5                7.8555
428422016             15.868066                     5               12.1165
428422016             15.868066                     5                16.377
428422016             15.868066                     5                20.638
428422016             14.644348                     5                8.5655
428422016             14.644348                     5               12.8265
428422016             14.644348                     5               17.0875
428422016             14.644348                     5                21.348
428422016             13.420631                     5                10.696
428422016             13.420631                     5                14.957
428422016             13.420631                     5               19.2175
428422016             13.420631                     5               23.4785
428422016             14.644348                     5                 9.986
428422016             14.644348                     5               14.2465
428422016             14.644348                     5               18.5075
428422016             14.644348                     5               22.7685
428422016             13.420631                     5                7.8555
428422016             13.420631                     5               12.1165
428422016             13.420631                     5                16.377
428422016             13.420631                     5                20.638
428422016             12.197085                     5                8.5655
428422016             12.197085                     5               12.8265
428422016             12.197085                     5               17.0875
428422016             12.197085                     5                21.348
428422016             10.973368                     5                10.696
428422016             10.973368                     5                14.957
428422016             10.973368                     5               19.2175
428422016             10.973368                     5               23.4785
428422016             12.197085                     5                 9.986
428422016             12.197085                     5               14.2465
428422016             12.197085                     5               18.5075
428422016             12.197085                     5               22.7685
428422016             10.973368                     5                7.8555
428422016             10.973368                     5               12.1165
428422016             10.973368                     5                16.377
428422016             10.973368                     5                20.638
428422016               9.74965                     5                8.5655
428422016               9.74965                     5               12.8265
428422016               9.74965                     5               17.0875
428422016               9.74965                     5                21.348
428422016              8.525933                     5                10.696
428422016              8.525933                     5                14.957
428422016              8.525933                     5               19.2175
428422016              8.525933                     5               23.4785
428422016               9.74965                     5                 9.986
428422016               9.74965                     5               14.2465
428422016               9.74965                     5               18.5075
428422016               9.74965                     5               22.7685
428422016              8.525933                     5                7.8555
428422016              8.525933                     5               12.1165
428422016              8.525933                     5                16.377
428422016              8.525933                     5                20.638
428422016              7.302216                     5                8.5655
428422016              7.302216                     5               12.8265
428422016              7.302216                     5               17.0875
428422016              7.302216                     5                21.348
428422016              6.078498                     5                10.696
428422016              6.078498                     5                14.957
428422016              6.078498                     5               19.2175
428422016              6.078498                     5               23.4785
428422016              7.302216                     5                 9.986
428422016              7.302216                     5               14.2465
428422016              7.302216                     5               18.5075
428422016              7.302216                     5               22.7685
428422016              6.078498                     5                7.8555
428422016              6.078498                     5               12.1165
428422016              6.078498                     5                16.377
428422016              6.078498                     5                20.638
428422016              4.854781                     5                8.5655
428422016              4.854781                     5               12.8265
428422016              4.854781                     5               17.0875
428422016              4.854781                     5                21.348
428422016              3.631235                     5                10.696
428422016              3.631235                     5                14.957
428422016              3.631235                     5               19.2175
428422016              3.631235                     5               23.4785
428422016              4.854781                     5                 9.986
428422016              4.854781                     5               14.2465
428422016              4.854781                     5               18.5075
428422016              4.854781                     5               22.7685
428422016              3.631235                     5                7.8555
428422016              3.631235                     5               12.1165
428422016              3.631235                     5                16.377
428422016              3.631235                     5                20.638
428422016              2.407518                     5                8.5655
428422016              2.407518                     5               12.8265
428422016              2.407518                     5               17.0875
428422016              2.407518                     5                21.348
428422016                1.1838                     5                10.696
428422016                1.1838                     5                14.957
428422016                1.1838                     5               19.2175
428422016                1.1838                     5               23.4785
428422016              2.407518                     5                 9.986
428422016              2.407518                     5               14.2465
428422016              2.407518                     5               18.5075
428422016              2.407518                     5               22.7685
428422016                1.1838                     5                7.8555
428422016                1.1838                     5               12.1165
428422016                1.1838                     5                16.377
428422016                1.1838                     5                20.638
428422048             15.865667                     5                6.7155
428422048              13.42303                     5                6.7155
428422048             10.975766                     5                6.7155
428422048              8.528332                     5                6.7155
428422048              6.080897                     5                6.7155
428422048              3.633634                     5                6.7155
428422048              1.181402                     5                6.7155
428422048              6.658438              2.223685             27.645937
428422048              0.514113              7.435946             27.164388
428422048              4.758211              8.381042             24.971021
428422048             11.270824              9.379772             28.063095
428422048               6.48704              1.004404             23.514963
428422048              7.246824              1.265577                  23.5
428422048               1.94067               0.19775              26.45614
428422048              6.024973              0.396386                  23.5
428422048             13.968402              5.712391             29.171339
428422048              2.800958              2.090352             31.673714
428422048              2.504928              0.610382             30.594922
428422048              3.343736              7.097998             27.777304
428422048              8.872957               6.72582             30.637366
428422048               7.88949              3.627842             28.413887
428422048              3.750983              6.631654             28.480923
428422048              10.02693              8.904629             30.938664
428422048              3.399974              5.517882             27.411032
428422048              1.792283              8.823311             30.123745
428422048              8.659628              3.676043             32.590006
428422048              4.937749              2.955144             31.639686
428422048              6.877939               3.88954                    33
428422048              2.638462              3.704574              29.95563
428422048              4.393221              7.815141             29.025026
428422048              1.250402              1.294699             30.158534
428422048             15.240497              5.751478                    33
428422048              1.479527              7.815355             31.852448
428422048             11.931085              7.085118             31.090197
428422048              1.369214              6.543198                    33
428422016               3.07568              5.752797             26.545535
428422016              8.725413               7.88662             23.829631
428422016              2.658918              8.161119             25.732331
428422016              9.321681              2.592608                25.167
428422016              2.333335              5.124908             27.215118
428422016              9.683058              0.560428             24.818073
428422016             14.662591              1.954529             24.655331
428422016             15.117348              0.412246             24.258239
428422016             11.154853              5.835729             25.450651
428422016              7.207444              8.670672                  23.5
428422016               8.80134              9.738193                  23.5
428422016              2.857622              3.635138             27.117403
428422016              8.553653              6.484812             25.559168
428422016              7.570523              3.741151             25.037223
428422016              4.317306              6.284503             27.615974
428422016              0.086512              5.944271             28.440067
428422016              4.770097              2.957458             25.520735
428422016              4.721222              5.177683             27.642199
428422016             10.421983              6.519272             28.612068
428422016             15.527875              7.312774             29.209968
428422016              6.836655              8.814137             29.112347
428422016              8.502443              6.544196             26.765257
428422016             12.119002              1.281237             30.463206
428422016             10.898555              3.004182             29.196836
428422016              2.115817              0.132758             32.782108
428422016             15.131494              3.201087                    33
428422016              2.125868              9.749644             32.393707
428422016              15.15041              4.662052                    33
428422016             15.400221              2.671067                    33
428422016              5.700383              2.688478                    33
428422016              5.443492              6.960514             31.963691
428422016              9.039552              6.343043             28.588902
428422016             13.001802              8.745717                    33
300
Atoms. Timestep: 10
428422048      3.80581380674654                     5      34.3145295998791
428422048      3.80581380674654                     5      36.7745295998791
428422048      3.80581380674654                     5      39.2345295998791
428422048      3.80581380674654                     5      41.6945295998791
428422048      3.80581380674654                     5      44.1545295998791
428422048      3.80581380674654                     5      46.6145295998791
428422048      3.80581380674654                     5      49.0745295998791
428422048      5.94727580674654                     5      33.0845295998791
428422048      5.94727580674654                     5      35.5445295998791
428422048      5.94727580674654                     5      38.0045295998791
428422048      5.94727580674654                     5      40.4645295998791
428422048      5.94727580674654                     5      42.9245295998791
428422048      5.94727580674654                     5      45.3845295998791
428422048      5.94727580674654                     5      47.8445295998791
428422048      5.23356880674654                     5      34.3145295998791
428422048      5.23356880674654                     5      36.7745295998791
428422048      5.23356880674654                     5      39.2345295998791
428422048      5.23356880674654                     5      41.6945295998791
428422048      5.23356880674654                     5      44.1545295998791
428422048      5.23356880674654                     5      46.6145295998791
428422048      5.23356880674654                     5      49.0745295998791
428422048      7.37503180674654                     5      33.0845295998791
428422048      7.37503180674654                     5      35.5445295998791
428422048      7.37503180674654                     5      38.0045295998791
428422048      7.37503180674654                     5      40.4645295998791
428422048      7.37503180674654                     5      42.9245295998791
428422048      7.37503180674654                     5      45.3845295998791
428422048      7.37503180674654                     5      47.8445295998791
428422048      8.08873880674654                     5      34.3145295998791
428422048      8.08873880674654                     5      36.7745295998791
428422016      8.08873880674654                     5      39.2345295998791
428422016      8.08873880674654                     5      41.6945295998791
428422016      8.08873880674654                     5      44.1545295998791
428422016      8.08873880674654                     5      46.6145295998791
428422016      8.08873880674654                     5      49.0745295998791
428422016      10.2302008067465                     5      33.0845295998791
428422016      10.2302008067465                     5      35.5445295998791
428422016      10.2302008067465                     5      38.0045295998791
428422016      10.2302008067465                     5      40.4645295998791
428422016      10.2302008067465                     5      42.9245295998791
428422016      10.2302008067465                     5      45.3845295998791
428422016      10.2302008067465                     5      47.8445295998791
428422016      9.51649380674654                     5      34.3145295998791
428422016      9.51649380674654                     5      36.7745295998791
428422016      9.51649380674654                     5      39.2345295998791
428422016      9.51649380674654                     5      41.6945295998791
428422016      9.51649380674654                     5      44.1545295998791
428422016      9.51649380674654                     5      46.6145295998791
428422016      9.51649380674654                     5      49.0745295998791
428422016      11.6579568067465                     5      33.0845295998791
428422016      11.6579568067465                     5      35.5445295998791
428422016      11.6579568067465                     5      38.0045295998791
428422016      11.6579568067465                     5      40.4645295998791
428422016      11.6579568067465                     5      42.9245295998791
428422016      11.6579568067465                     5      45.3845295998791
428422016      11.6579568067465                     5      47.8445295998791
428422016      12.3716638067465                     5      34.3145295998791
428422016      12.3716638067465                     5      36.7745295998791
428422016      12.3716638067465                     5      39.2345295998791
428422016      12.3716638067465                     5      41.6945295998791
428422016      12.3716638067465                     5      44.1545295998791
428422016      12.3716638067465                     5      46.6145295998791
428422016      12.3716638067465                     5      49.0745295998791
428422016      14.5131258067465                     5      33.0845295998791
428422016      14.5131258067465                     5      35.5445295998791
428422016      14.5131258067465                     5      38.0045295998791
428422016      14.5131258067465                     5      40.4645295998791
428422016      14.5131258067465                     5      42.9245295998791
428422016      14.5131258067465                     5      45.3845295998791
428422016      14.5131258067465                     5      47.8445295998791
428422016      13.7994188067465                     5      34.3145295998791
428422016      13.7994188067465                     5      36.7745295998791
428422016      13.7994188067465                     5      39.2345295998791
428422016      13.7994188067465                     5      41.6945295998791
428422016      13.7994188067465                     5      44.1545295998791
428422016      13.7994188067465                     5      46.6145295998791
428422016      13.7994188067465                     5      49.0745295998791
428422016      15.9408818067465                     5      33.0845295998791
428422016      15.9408818067465                     5      35.5445295998791
428422016      15.9408818067465                     5      38.0045295998791
428422016      15.9408818067465                     5      40.4645295998791
428422016      15.9408818067465                     5      42.9245295998791
428422016      15.9408818067465                     5      45.3845295998791
428422016      15.9408818067465                     5      47.8445295998791
428422016      16.6545888067465                     5      34.3145295998791
428422016      16.6545888067465                     5      36.7745295998791
428422016      16.6545888067465                     5      39.2345295998791
428422016      16.6545888067465                     5      41.6945295998791
428422016      16.6545888067465                     5      44.1545295998791
428422016      16.6545888067465                     5      46.6145295998791
428422016      16.6545888067465                     5      49.0745295998791
428422016      1.66435080674654                     5      33.0845295998791
428422016      1.66435080674654                     5      35.5445295998791
428422016      1.66435080674654                     5      38.0045295998791