search structure

300 atoms
2  atom types

0   17.131700 xlo xhi
0   10.000000 ylo yhi
0   50.000000 zlo zhi

Atoms

1 2 3.810388 5.000000 34.306500
2 2 3.810388 5.000000 36.766500
3 2 3.810388 5.000000 39.226500
4 2 3.810388 5.000000 41.686500
5 2 3.810388 5.000000 44.146500
6 2 3.810388 5.000000 46.606500
7 2 3.810388 5.000000 49.066500
8 2 5.951850 5.000000 33.076500
9 2 5.951850 5.000000 35.536500
10 2 5.951850 5.000000 37.996500
11 2 5.951850 5.000000 40.456500
12 2 5.951850 5.000000 42.916500
13 2 5.951850 5.000000 45.376500
14 2 5.951850 5.000000 47.836500
15 2 5.238143 5.000000 34.306500
16 2 5.238143 5.000000 36.766500
17 2 5.238143 5.000000 39.226500
18 2 5.238143 5.000000 41.686500
19 2 5.238143 5.000000 44.146500
20 2 5.238143 5.000000 46.606500
21 2 5.238143 5.000000 49.066500
22 2 7.379606 5.000000 33.076500
23 2 7.379606 5.000000 35.536500
24 2 7.379606 5.000000 37.996500
25 2 7.379606 5.000000 40.456500
26 2 7.379606 5.000000 42.916500
27 2 7.379606 5.000000 45.376500
28 2 7.379606 5.000000 47.836500
29 2 8.093313 5.000000 34.306500
30 2 8.093313 5.000000 36.766500
31 1 8.093313 5.000000 39.226500
32 1 8.093313 5.000000 41.686500
33 1 8.093313 5.000000 44.146500
34 1 8.093313 5.000000 46.606500
35 1 8.093313 5.000000 49.066500
36 1 10.234775 5.000000 33.076500
37 1 10.234775 5.000000 35.536500
38 1 10.234775 5.000000 37.996500
39 1 10.234775 5.000000 40.456500
40 1 10.234775 5.000000 42.916500
41 1 10.234775 5.000000 45.376500
42 1 10.234775 5.000000 47.836500
43 1 9.521068 5.000000 34.306500
44 1 9.521068 5.000000 36.766500
45 1 9.521068 5.000000 39.226500
46 1 9.521068 5.000000 41.686500
47 1 9.521068 5.000000 44.146500
48 1 9.521068 5.000000 46.606500
49 1 9.521068 5.000000 49.066500
50 1 11.662531 5.000000 33.076500
51 1 11.662531 5.000000 35.536500
52 1 11.662531 5.000000 37.996500
53 1 11.662531 5.000000 40.456500
54 1 11.662531 5.000000 42.916500
55 1 11.662531 5.000000 45.376500
56 1 11.662531 5.000000 47.836500
57 1 12.376238 5.000000 34.306500
58 1 12.376238 5.000000 36.766500
59 1 12.376238 5.000000 39.226500
60 1 12.376238 5.000000 41.686500
61 1 12.376238 5.000000 44.146500
62 1 12.376238 5.000000 46.606500
63 1 12.376238 5.000000 49.066500
64 1 14.517700 5.000000 33.076500
65 1 14.517700 5.000000 35.536500
66 1 14.517700 5.000000 37.996500
67 1 14.517700 5.000000 40.456500
68 1 14.517700 5.000000 42.916500
69 1 14.517700 5.000000 45.376500
70 1 14.517700 5.000000 47.836500
71 1 13.803993 5.000000 34.306500
72 1 13.803993 5.000000 36.766500
73 1 13.803993 5.000000 39.226500
74 1 13.803993 5.000000 41.686500
75 1 13.803993 5.000000 44.146500
76 1 13.803993 5.000000 46.606500
77 1 13.803993 5.000000 49.066500
78 1 15.945456 5.000000 33.076500
79 1 15.945456 5.000000 35.536500
80 1 15.945456 5.000000 37.996500
81 1 15.945456 5.000000 40.456500
82 1 15.945456 5.000000 42.916500
83 1 15.945456 5.000000 45.376500
84 1 15.945456 5.000000 47.836500
85 1 16.659163 5.000000 34.306500
86 1 16.659163 5.000000 36.766500
87 1 16.659163 5.000000 39.226500
88 1 16.659163 5.000000 41.686500
89 1 16.659163 5.000000 44.146500
90 1 16.659163 5.000000 46.606500
91 1 16.659163 5.000000 49.066500
92 1 1.668925 5.000000 33.076500
93 1 1.668925 5.000000 35.536500
94 1 1.668925 5.000000 37.996500
95 1 1.668925 5.000000 40.456500
96 1 1.668925 5.000000 42.916500
97 1 1.668925 5.000000 45.376500
98 1 1.668925 5.000000 47.836500
99 1 0.955218 5.000000 34.306500
100 1 0.955218 5.000000 36.766500
101 1 0.955218 5.000000 39.226500
102 1 0.955218 5.000000 41.686500
103 1 0.955218 5.000000 44.146500
104 1 0.955218 5.000000 46.606500
105 1 0.955218 5.000000 49.066500
106 1 3.096681 5.000000 33.076500
107 1 3.096681 5.000000 35.536500
108 1 3.096681 5.000000 37.996500
109 1 3.096681 5.000000 40.456500
110 1 3.096681 5.000000 42.916500
111 1 3.096681 5.000000 45.376500
112 1 3.096681 5.000000 47.836500
113 2 3.240245 5.000000 50.054000
114 2 5.808115 5.000000 50.054000
115 2 7.525397 5.000000 50.055000
116 2 10.091040 5.000000 50.054000
117 2 11.808322 5.000000 50.055000
118 2 14.373965 5.000000 50.054000
119 2 16.091247 5.000000 50.055000
120 2 1.525190 5.000000 50.054000
121 1 -0.039917 5.000000 8.565500
122 1 -0.039917 5.000000 12.826500
123 1 -0.039917 5.000000 17.087500
124 1 -0.039917 5.000000 21.348000
125 1 -0.039917 5.000000 9.986000
126 1 -0.039917 5.000000 14.246500
127 1 -0.039917 5.000000 18.507500
128 1 -0.039917 5.000000 22.768500
129 1 15.868066 5.000000 10.696000
130 1 15.868066 5.000000 14.957000
131 1 15.868066 5.000000 19.217500
132 1 15.868066 5.000000 23.478500
133 1 15.868066 5.000000 7.855500
134 1 15.868066 5.000000 12.116500
135 1 15.868066 5.000000 16.377000
136 1 15.868066 5.000000 20.638000
137 1 14.644348 5.000000 8.565500
138 1 14.644348 5.000000 12.826500
139 1 14.644348 5.000000 17.087500
140 1 14.644348 5.000000 21.348000
141 1 13.420631 5.000000 10.696000
142 1 13.420631 5.000000 14.957000
143 1 13.420631 5.000000 19.217500
144 1 13.420631 5.000000 23.478500
145 1 14.644348 5.000000 9.986000
146 1 14.644348 5.000000 14.246500
147 1 14.644348 5.000000 18.507500
148 1 14.644348 5.000000 22.768500
149 1 13.420631 5.000000 7.855500
150 1 13.420631 5.000000 12.116500
151 1 13.420631 5.000000 16.377000
152 1 13.420631 5.000000 20.638000
153 1 12.197085 5.000000 8.565500
154 1 12.197085 5.000000 12.826500
155 1 12.197085 5.000000 17.087500
156 1 12.197085 5.000000 21.348000
157 1 10.973368 5.000000 10.696000
158 1 10.973368 5.000000 14.957000
159 1 10.973368 5.000000 19.217500
160 1 10.973368 5.000000 23.478500
161 1 12.197085 5.000000 9.986000
162 1 12.197085 5.000000 14.246500
163 1 12.197085 5.000000 18.507500
164 1 12.197085 5.000000 22.768500
165 1 10.973368 5.000000 7.855500
166 1 10.973368 5.000000 12.116500
167 1 10.973368 5.000000 16.377000
168 1 10.973368 5.000000 20.638000
169 1 9.749650 5.000000 8.565500
170 1 9.749650 5.000000 12.826500
171 1 9.749650 5.000000 17.087500
172 1 9.749650 5.000000 21.348000
173 1 8.525933 5.000000 10.696000
174 1 8.525933 5.000000 14.957000
175 1 8.525933 5.000000 19.217500
176 1 8.525933 5.000000 23.478500
177 1 9.749650 5.000000 9.986000
178 1 9.749650 5.000000 14.246500
179 1 9.749650 5.000000 18.507500
180 1 9.749650 5.000000 22.768500
181 1 8.525933 5.000000 7.855500
182 1 8.525933 5.000000 12.116500
183 1 8.525933 5.000000 16.377000
184 1 8.525933 5.000000 20.638000
185 1 7.302216 5.000000 8.565500
186 1 7.302216 5.000000 12.826500
187 1 7.302216 5.000000 17.087500
188 1 7.302216 5.000000 21.348000
189 1 6.078498 5.000000 10.696000
190 1 6.078498 5.000000 14.957000
191 1 6.078498 5.000000 19.217500
192 1 6.078498 5.000000 23.478500
193 1 7.302216 5.000000 9.986000
194 1 7.302216 5.000000 14.246500
195 1 7.302216 5.000000 18.507500
196 1 7.302216 5.000000 22.768500
197 1 6.078498 5.000000 7.855500
198 1 6.078498 5.000000 12.116500
199 1 6.078498 5.000000 16.377000
200 1 6.078498 5.000000 20.638000
201 1 4.854781 5.000000 8.565500
202 1 4.854781 5.000000 12.826500
203 1 4.854781 5.000000 17.087500
204 1 4.854781 5.000000 21.348000
205 1 3.631235 5.000000 10.696000
206 1 3.631235 5.000000 14.957000
207 1 3.631235 5.000000 19.217500
208 1 3.631235 5.000000 23.478500
209 1 4.854781 5.000000 9.986000
210 1 4.854781 5.000000 14.246500
211 1 4.854781 5.000000 18.507500
212 1 4.854781 5.000000 22.768500
213 1 3.631235 5.000000 7.855500
214 1 3.631235 5.000000 12.116500
215 1 3.631235 5.000000 16.377000
216 1 3.631235 5.000000 20.638000
217 1 2.407518 5.000000 8.565500
218 1 2.407518 5.000000 12.826500
219 1 2.407518 5.000000 17.087500
220 1 2.407518 5.000000 21.348000
221 1 1.183800 5.000000 10.696000
222 1 1.183800 5.000000 14.957000
223 1 1.183800 5.000000 19.217500
224 1 1.183800 5.000000 23.478500
225 1 2.407518 5.000000 9.986000
226 1 2.407518 5.000000 14.246500
227 1 2.407518 5.000000 18.507500
228 1 2.407518 5.000000 22.768500
229 1 1.183800 5.000000 7.855500
230 1 1.183800 5.000000 12.116500
231 1 1.183800 5.000000 16.377000
232 1 1.183800 5.000000 20.638000
233 2 15.865667 5.000000 6.715500
234 2 13.423030 5.000000 6.715500
235 2 10.975766 5.000000 6.715500
236 2 8.528332 5.000000 6.715500
237 2 6.080897 5.000000 6.715500
238 2 3.633634 5.000000 6.715500
239 2 1.181402 5.000000 6.715500
240 2 6.658438 2.223685 27.645937
241 2 0.514113 7.435946 27.164388
242 2 4.758211 8.381042 24.971021
243 2 11.270824 9.379772 28.063095
244 2 6.487040 1.004404 23.514963
245 2 7.246824 1.265577 23.500000
246 2 1.940670 0.197750 26.456140
247 2 6.024973 0.396386 23.500000
248 2 13.968402 5.712391 29.171339
249 2 2.800958 2.090352 31.673714
250 2 2.504928 0.610382 30.594922
251 2 3.343736 7.097998 27.777304
252 2 8.872957 6.725820 30.637366
253 2 7.889490 3.627842 28.413887
254 2 3.750983 6.631654 28.480923
255 2 10.026930 8.904629 30.938664
256 2 3.399974 5.517882 27.411032
257 2 1.792283 8.823311 30.123745
258 2 8.659628 3.676043 32.590006
259 2 4.937749 2.955144 31.639686
260 2 6.877939 3.889540 33.000000
261 2 2.638462 3.704574 29.955630
262 2 4.393221 7.815141 29.025026
263 2 1.250402 1.294699 30.158534
264 2 15.240497 5.751478 33.000000
265 2 1.479527 7.815355 31.852448
266 2 11.931085 7.085118 31.090197
267 2 1.369214 6.543198 33.000000
268 1 3.075680 5.752797 26.545535
269 1 8.725413 7.886620 23.829631
270 1 2.658918 8.161119 25.732331
271 1 9.321681 2.592608 25.167000
272 1 2.333335 5.124908 27.215118
273 1 9.683058 0.560428 24.818073
274 1 14.662591 1.954529 24.655331
275 1 15.117348 0.412246 24.258239
276 1 11.154853 5.835729 25.450651
277 1 7.207444 8.670672 23.500000
278 1 8.801340 9.738193 23.500000
279 1 2.857622 3.635138 27.117403
280 1 8.553653 6.484812 25.559168
281 1 7.570523 3.741151 25.037223
282 1 4.317306 6.284503 27.615974
283 1 0.086512 5.944271 28.440067
284 1 4.770097 2.957458 25.520735
285 1 4.721222 5.177683 27.642199
286 1 10.421983 6.519272 28.612068
287 1 15.527875 7.312774 29.209968
288 1 6.836655 8.814137 29.112347
289 1 8.502443 6.544196 26.765257
290 1 12.119002 1.281237 30.463206
291 1 10.898555 3.004182 29.196836
292 1 2.115817 0.132758 32.782108
293 1 15.131494 3.201087 33.000000
294 1 2.125868 9.749644 32.393707
295 1 15.150410 4.662052 33.000000
296 1 15.400221 2.671067 33.000000
297 1 5.700383 2.688478 33.000000
298 1 5.443492 6.960514 31.963691
299 1 9.039552 6.343043 28.588902
300 1 13.001802 8.745717 33.000000
