300
Atoms. Timestep: 0
247120800              0.373317                     5             35.621728
247120800              0.373317                     5             38.081728
247120800              0.373317                     5             40.541728
247120800              0.373317                     5             43.001728
247120800              0.373317                     5             45.461728
247120800              0.373317                     5             47.921728
247120800              0.373317                     5     0.381728000000003
247120800              2.514779                     5             34.391728
247120800              2.514779                     5             36.851728
247120800              2.514779                     5             39.311728
247120800              2.514779                     5             41.771728
247120800              2.514779                     5             44.231728
247120800              2.514779                     5             46.691728
247120800              2.514779                     5             49.151728
247120800              1.801073                     5             35.621728
247120800              1.801073                     5             38.081728
247120800              1.801073                     5             40.541728
247120800              1.801073                     5             43.001728
247120800              1.801073                     5             45.461728
247120800              1.801073                     5             47.921728
247120800              1.801073                     5     0.381728000000003
247120800              3.942535                     5             34.391728
247120800              3.942535                     5             36.851728
247120800              3.942535                     5             39.311728
247120800              3.942535                     5             41.771728
247120800              3.942535                     5             44.231728
247120800              3.942535                     5             46.691728
247120800              3.942535                     5             49.151728
247120800              4.656242                     5             35.621728
247120800              4.656242                     5             38.081728
247120768              4.656242                     5             40.541728
247120768              4.656242                     5             43.001728
247120768              4.656242                     5             45.461728
247120768              4.656242                     5             47.921728
247120768              4.656242                     5     0.381728000000003
247120768              6.797704                     5             34.391728
247120768              6.797704                     5             36.851728
247120768              6.797704                     5             39.311728
247120768              6.797704                     5             41.771728
247120768              6.797704                     5             44.231728
247120768              6.797704                     5             46.691728
247120768              6.797704                     5             49.151728
247120768              6.083998                     5             35.621728
247120768              6.083998                     5             38.081728
247120768              6.083998                     5             40.541728
247120768              6.083998                     5             43.001728
247120768              6.083998                     5             45.461728
247120768              6.083998                     5             47.921728
247120768              6.083998                     5     0.381728000000003
247120768               8.22546                     5             34.391728
247120768               8.22546                     5             36.851728
247120768               8.22546                     5             39.311728
247120768               8.22546                     5             41.771728
247120768               8.22546                     5             44.231728
247120768               8.22546                     5             46.691728
247120768               8.22546                     5             49.151728
247120768              8.939167                     5             35.621728
247120768              8.939167                     5             38.081728
247120768              8.939167                     5             40.541728
247120768              8.939167                     5             43.001728
247120768              8.939167                     5             45.461728
247120768              8.939167                     5             47.921728
247120768              8.939167                     5     0.381728000000003
247120768             11.080629                     5             34.391728
247120768             11.080629                     5             36.851728
247120768             11.080629                     5             39.311728
247120768             11.080629                     5             41.771728
247120768             11.080629                     5             44.231728
247120768             11.080629                     5             46.691728
247120768             11.080629                     5             49.151728
247120768             10.366923                     5             35.621728
247120768             10.366923                     5             38.081728
247120768             10.366923                     5             40.541728
247120768             10.366923                     5             43.001728
247120768             10.366923                     5             45.461728
247120768             10.366923                     5             47.921728
247120768             10.366923                     5     0.381728000000003
247120768             12.508385                     5             34.391728
247120768             12.508385                     5             36.851728
247120768             12.508385                     5             39.311728
247120768             12.508385                     5             41.771728
247120768             12.508385                     5             44.231728
247120768             12.508385                     5             46.691728
247120768             12.508385                     5             49.151728
247120768             13.222092                     5             35.621728
247120768             13.222092                     5             38.081728
247120768             13.222092                     5             40.541728
247120768             13.222092                     5             43.001728
247120768             13.222092                     5             45.461728
247120768             13.222092                     5             47.921728
247120768             13.222092                     5     0.381728000000003
247120768             15.363554                     5             34.391728
247120768             15.363554                     5             36.851728
247120768             15.363554                     5             39.311728
247120768             15.363554                     5             41.771728
247120768             15.363554                     5             44.231728
247120768             15.363554                     5             46.691728
247120768             15.363554                     5             49.151728
247120768             14.649848                     5             35.621728
247120768             14.649848                     5             38.081728
247120768             14.649848                     5             40.541728
247120768             14.649848                     5             43.001728
247120768             14.649848                     5             45.461728
247120768             14.649848                     5             47.921728
247120768             14.649848                     5     0.381728000000003
247120768              16.79131                     5             34.391728
247120768              16.79131                     5             36.851728
247120768              16.79131                     5             39.311728
247120768              16.79131                     5             41.771728
247120768              16.79131                     5             44.231728
247120768              16.79131                     5             46.691728
247120768              16.79131                     5             49.151728
247120800             16.934874                     5              1.369228
247120800              2.371044                     5              1.369228
247120800              4.088326                     5              1.370228
247120800              6.653969                     5              1.369228
247120800              8.371251                     5              1.370228
247120800             10.936894                     5              1.369228
247120800             12.654176                     5              1.370228
247120800             15.219819                     5              1.369228
247120768             17.091783                     5                8.5655
247120768             17.091783                     5               12.8265
247120768             17.091783                     5               17.0875
247120768             17.091783                     5                21.348
247120768             17.091783                     5                 9.986
247120768             17.091783                     5               14.2465
247120768             17.091783                     5               18.5075
247120768             17.091783                     5               22.7685
247120768             15.868066                     5                10.696
247120768             15.868066                     5                14.957
247120768             15.868066                     5               19.2175
247120768             15.868066                     5               23.4785
247120768             15.868066                     5                7.8555
247120768             15.868066                     5               12.1165
247120768             15.868066                     5                16.377
247120768             15.868066                     5                20.638
247120768             14.644348                     5                8.5655
247120768             14.644348                     5               12.8265
247120768             14.644348                     5               17.0875
247120768             14.644348                     5                21.348
247120768             13.420631                     5                10.696
247120768             13.420631                     5                14.957
247120768             13.420631                     5               19.2175
247120768             13.420631                     5               23.4785
247120768             14.644348                     5                 9.986
247120768             14.644348                     5               14.2465
247120768             14.644348                     5               18.5075
247120768             14.644348                     5               22.7685
247120768             13.420631                     5                7.8555
247120768             13.420631                     5               12.1165
247120768             13.420631                     5                16.377
247120768             13.420631                     5                20.638
247120768             12.197085                     5                8.5655
247120768             12.197085                     5               12.8265
247120768             12.197085                     5               17.0875
247120768             12.197085                     5                21.348
247120768             10.973368                     5                10.696
247120768             10.973368                     5                14.957
247120768             10.973368                     5               19.2175
247120768             10.973368                     5               23.4785
247120768             12.197085                     5                 9.986
247120768             12.197085                     5               14.2465
247120768             12.197085                     5               18.5075
247120768             12.197085                     5               22.7685
247120768             10.973368                     5                7.8555
247120768             10.973368                     5               12.1165
247120768             10.973368                     5                16.377
247120768             10.973368                     5                20.638
247120768               9.74965                     5                8.5655
247120768               9.74965                     5               12.8265
247120768               9.74965                     5               17.0875
247120768               9.74965                     5                21.348
247120768              8.525933                     5                10.696
247120768              8.525933                     5                14.957
247120768              8.525933                     5               19.2175
247120768              8.525933                     5               23.4785
247120768               9.74965                     5                 9.986
247120768               9.74965                     5               14.2465
247120768               9.74965                     5               18.5075
247120768               9.74965                     5               22.7685
247120768              8.525933                     5                7.8555
247120768              8.525933                     5               12.1165
247120768              8.525933                     5                16.377
247120768              8.525933                     5                20.638
247120768              7.302216                     5                8.5655
247120768              7.302216                     5               12.8265
247120768              7.302216                     5               17.0875
247120768              7.302216                     5                21.348
247120768              6.078498                     5                10.696
247120768              6.078498                     5                14.957
247120768              6.078498                     5               19.2175
247120768              6.078498                     5               23.4785
247120768              7.302216                     5                 9.986
247120768              7.302216                     5               14.2465
247120768              7.302216                     5               18.5075
247120768              7.302216                     5               22.7685
247120768              6.078498                     5                7.8555
247120768              6.078498                     5               12.1165
247120768              6.078498                     5                16.377
247120768              6.078498                     5                20.638
247120768              4.854781                     5                8.5655
247120768              4.854781                     5               12.8265
247120768              4.854781                     5               17.0875
247120768              4.854781                     5                21.348
247120768              3.631235                     5                10.696
247120768              3.631235                     5                14.957
247120768              3.631235                     5               19.2175
247120768              3.631235                     5               23.4785
247120768              4.854781                     5                 9.986
247120768              4.854781                     5               14.2465
247120768              4.854781                     5               18.5075
247120768              4.854781                     5               22.7685
247120768              3.631235                     5                7.8555
247120768              3.631235                     5               12.1165
247120768              3.631235                     5                16.377
247120768              3.631235                     5                20.638
247120768              2.407518                     5                8.5655
247120768              2.407518                     5               12.8265
247120768              2.407518                     5               17.0875
247120768              2.407518                     5                21.348
247120768                1.1838                     5                10.696
247120768                1.1838                     5                14.957
247120768                1.1838                     5               19.2175
247120768                1.1838                     5               23.4785
247120768              2.407518                     5                 9.986
247120768              2.407518                     5               14.2465
247120768              2.407518                     5               18.5075
247120768              2.407518                     5               22.7685
247120768                1.1838                     5                7.8555
247120768                1.1838                     5               12.1165
247120768                1.1838                     5                16.377
247120768                1.1838                     5                20.638
247120800             15.865667                     5                6.7155
247120800              13.42303                     5                6.7155
247120800             10.975766                     5                6.7155
247120800              8.528332                     5                6.7155
247120800              6.080897                     5                6.7155
247120800              3.633634                     5                6.7155
247120800              1.181402                     5                6.7155
247120800              1.546529              0.681399             24.496849
247120800             16.774879              7.228197             29.198528
247120800              7.409405              1.544558                  23.5
247120800             11.072815              2.541782             26.241956
247120800              4.219151              2.481898                  23.5
247120800             15.401527               3.53368             25.259719
247120800             12.785665              6.495155              25.83844
247120800              7.162331              8.473782             25.333285
247120800             10.390557              3.621222              28.19115
247120800              7.841404              0.288875             27.176506
247120800             16.864554              7.313636             26.418521
247120800             11.575056              0.729416             30.190602
247120800              3.232937              5.421833             28.889532
247120800              7.904359              1.751258             28.361455
247120800               10.6769              5.512871             29.537623
247120800              3.003547              5.585365              28.61265
247120800             14.219356              3.867537             30.676964
247120800             15.333108              8.206041             27.870099
247120800              3.542365              9.813075             34.265793
247120800               1.61239              2.553784             29.261265
247120800              8.289337              4.184314             30.725455
247120800              6.217814              4.641568             34.315228
247120800               6.94427              9.722369              28.37881
247120800             14.961217              6.036167             32.442994
247120800              1.230914              6.792439             32.207447
247120800              7.898289              5.323002             31.768465
247120800             16.841438              7.065291             28.180125
247120800             10.754469              7.776476             31.014384
247120768              7.328526              4.348493             24.728522
247120768              5.486879              7.202524             24.855509
247120768             14.881923              8.059246             27.917036
247120768             10.109463              2.266619             26.665062
247120768              7.352379              1.385148             24.997971
247120768              6.719377              3.685052             24.642238
247120768              2.972162              8.366043             24.859138
247120768             10.367083              9.676471              26.38067
247120768             11.840278              7.094736             24.229895
247120768             17.006808               7.14537             26.497517
247120768              2.880143              7.958686             25.405783
247120768              6.584761              9.094919             25.419255
247120768              9.099355              0.833374             26.209658
247120768              9.113364              4.623486             25.729857
247120768              6.776284              6.902021             28.566702
247120768              8.900783              8.546476             24.681934
247120768              1.165265              6.473453             27.581494
247120768              8.936796              8.718149             32.597902
247120768             13.852988              2.515539             31.370507
247120768               8.49305              5.732953             31.015773
247120768             12.174393              7.048296             27.556999
247120768              6.029438              9.294011             29.609149
247120768              7.980949              4.806384             33.510818
247120768              3.971426              6.067425             34.315228
247120768             15.481788              8.859733             29.371276
247120768             16.567128              8.298044             32.232847
247120768              6.815237              8.750947             26.152019
247120768             11.041753              9.680173             34.315228
247120768              9.459835              7.081522             32.799018
247120768             15.008718              3.944321              30.53375
247120768             15.355849              7.369084             34.315228
247120768              5.693171              8.951168             34.315228
247120768             10.927316              0.533628             34.315228
300
Atoms. Timestep: 10
247120800     0.377079461829909                     5      35.6374468879755
247120800     0.377079461829909                     5      38.0974468879755
247120800     0.377079461829909                     5      40.5574468879755
247120800     0.377079461829909                     5      43.0174468879755
247120800     0.377079461829909                     5      45.4774468879755
247120800     0.377079461829909                     5      47.9374468879755
247120800     0.377079461829909                     5     0.397446887975532
247120800      2.51854146182991                     5      34.4074468879755
247120800      2.51854146182991                     5      36.8674468879755
247120800      2.51854146182991                     5      39.3274468879755
247120800      2.51854146182991                     5      41.7874468879755
247120800      2.51854146182991                     5      44.2474468879755
247120800      2.51854146182991                     5      46.7074468879755
247120800      2.51854146182991                     5      49.1674468879755
247120800      1.80483546182991                     5      35.6374468879755
247120800      1.80483546182991                     5      38.0974468879755
247120800      1.80483546182991                     5      40.5574468879755
247120800      1.80483546182991                     5      43.0174468879755
247120800      1.80483546182991                     5      45.4774468879755
247120800      1.80483546182991                     5      47.9374468879755
247120800      1.80483546182991                     5     0.397446887975532
247120800      3.94629746182991                     5      34.4074468879755
247120800      3.94629746182991                     5      36.8674468879755
247120800      3.94629746182991                     5      39.3274468879755
247120800      3.94629746182991                     5      41.7874468879755
247120800      3.94629746182991                     5      44.2474468879755
247120800      3.94629746182991                     5      46.7074468879755
247120800      3.94629746182991                     5      49.1674468879755
247120800      4.66000446182991                     5      35.6374468879755
247120800      4.66000446182991                     5      38.0974468879755
247120768      4.66000446182991                     5      40.5574468879755
247120768      4.66000446182991                     5      43.0174468879755
247120768      4.66000446182991                     5      45.4774468879755
247120768      4.66000446182991                     5      47.9374468879755
247120768      4.66000446182991                     5     0.397446887975532
247120768      6.80146646182991                     5      34.4074468879755
247120768      6.80146646182991                     5      36.8674468879755
247120768      6.80146646182991                     5      39.3274468879755
247120768      6.80146646182991                     5      41.7874468879755
247120768      6.80146646182991                     5      44.2474468879755
247120768      6.80146646182991                     5      46.7074468879755
247120768      6.80146646182991                     5      49.1674468879755
247120768      6.08776046182991                     5      35.6374468879755
247120768      6.08776046182991                     5      38.0974468879755
247120768      6.08776046182991                     5      40.5574468879755
247120768      6.08776046182991                     5      43.0174468879755
247120768      6.08776046182991                     5      45.4774468879755
247120768      6.08776046182991                     5      47.9374468879755
247120768      6.08776046182991                     5     0.397446887975532
247120768      8.22922246182991                     5      34.4074468879755
247120768      8.22922246182991                     5      36.8674468879755
247120768      8.22922246182991                     5      39.3274468879755
247120768      8.22922246182991                     5      41.7874468879755
247120768      8.22922246182991                     5      44.2474468879755
247120768      8.22922246182991                     5      46.7074468879755
247120768      8.22922246182991                     5      49.1674468879755
247120768      8.94292946182991                     5      35.6374468879755
247120768      8.94292946182991                     5      38.0974468879755
247120768      8.94292946182991                     5      40.5574468879755
247120768      8.94292946182991                     5      43.0174468879755
247120768      8.94292946182991                     5      45.4774468879755
247120768      8.94292946182991                     5      47.9374468879755
247120768      8.94292946182991                     5     0.397446887975532
247120768      11.0843914618299                     5      34.4074468879755
247120768      11.0843914618299                     5      36.8674468879755
247120768      11.0843914618299                     5      39.3274468879755
247120768      11.0843914618299                     5      41.7874468879755
247120768      11.0843914618299                     5      44.2474468879755
247120768      11.0843914618299                     5      46.7074468879755
247120768      11.0843914618299                     5      49.1674468879755
247120768      10.3706854618299                     5      35.6374468879755
247120768      10.3706854618299                     5      38.0974468879755
247120768      10.3706854618299                     5      40.5574468879755
247120768      10.3706854618299                     5      43.0174468879755
247120768      10.3706854618299                     5      45.4774468879755
247120768      10.3706854618299                     5      47.9374468879755
247120768      10.3706854618299                     5     0.397446887975532
247120768      12.5121474618299                     5      34.4074468879755
247120768      12.5121474618299                     5      36.8674468879755
247120768      12.5121474618299                     5      39.3274468879755
247120768      12.5121474618299                     5      41.7874468879755
247120768      12.5121474618299                     5      44.2474468879755
247120768      12.5121474618299                     5      46.7074468879755
247120768      12.5121474618299                     5      49.1674468879755
247120768      13.2258544618299                     5      35.6374468879755
247120768      13.2258544618299                     5      38.0974468879755
247120768      13.2258544618299                     5      40.5574468879755
247120768      13.2258544618299                     5      43.0174468879755
247120768      13.2258544618299                     5      45.4774468879755
247120768      13.2258544618299                     5      47.9374468879755
247120768      13.2258544618299                     5     0.397446887975532
247120768      15.3673164618299                     5      34.4074468879755
247120768      15.3673164618299                     5      36.8674468879755
247120768      15.3673164618299                     5      39.3274468879755