search structure

300 atoms
2  atom types

0   17.131700 xlo xhi
0   10.000000 ylo yhi
0   50.000000 zlo zhi

Atoms

1 2 0.373317 5.000000 35.621728
2 2 0.373317 5.000000 38.081728
3 2 0.373317 5.000000 40.541728
4 2 0.373317 5.000000 43.001728
5 2 0.373317 5.000000 45.461728
6 2 0.373317 5.000000 47.921728
7 2 0.373317 5.000000 50.381728
8 2 2.514779 5.000000 34.391728
9 2 2.514779 5.000000 36.851728
10 2 2.514779 5.000000 39.311728
11 2 2.514779 5.000000 41.771728
12 2 2.514779 5.000000 44.231728
13 2 2.514779 5.000000 46.691728
14 2 2.514779 5.000000 49.151728
15 2 1.801073 5.000000 35.621728
16 2 1.801073 5.000000 38.081728
17 2 1.801073 5.000000 40.541728
18 2 1.801073 5.000000 43.001728
19 2 1.801073 5.000000 45.461728
20 2 1.801073 5.000000 47.921728
21 2 1.801073 5.000000 50.381728
22 2 3.942535 5.000000 34.391728
23 2 3.942535 5.000000 36.851728
24 2 3.942535 5.000000 39.311728
25 2 3.942535 5.000000 41.771728
26 2 3.942535 5.000000 44.231728
27 2 3.942535 5.000000 46.691728
28 2 3.942535 5.000000 49.151728
29 2 4.656242 5.000000 35.621728
30 2 4.656242 5.000000 38.081728
31 1 4.656242 5.000000 40.541728
32 1 4.656242 5.000000 43.001728
33 1 4.656242 5.000000 45.461728
34 1 4.656242 5.000000 47.921728
35 1 4.656242 5.000000 50.381728
36 1 6.797704 5.000000 34.391728
37 1 6.797704 5.000000 36.851728
38 1 6.797704 5.000000 39.311728
39 1 6.797704 5.000000 41.771728
40 1 6.797704 5.000000 44.231728
41 1 6.797704 5.000000 46.691728
42 1 6.797704 5.000000 49.151728
43 1 6.083998 5.000000 35.621728
44 1 6.083998 5.000000 38.081728
45 1 6.083998 5.000000 40.541728
46 1 6.083998 5.000000 43.001728
47 1 6.083998 5.000000 45.461728
48 1 6.083998 5.000000 47.921728
49 1 6.083998 5.000000 50.381728
50 1 8.225460 5.000000 34.391728
51 1 8.225460 5.000000 36.851728
52 1 8.225460 5.000000 39.311728
53 1 8.225460 5.000000 41.771728
54 1 8.225460 5.000000 44.231728
55 1 8.225460 5.000000 46.691728
56 1 8.225460 5.000000 49.151728
57 1 8.939167 5.000000 35.621728
58 1 8.939167 5.000000 38.081728
59 1 8.939167 5.000000 40.541728
60 1 8.939167 5.000000 43.001728
61 1 8.939167 5.000000 45.461728
62 1 8.939167 5.000000 47.921728
63 1 8.939167 5.000000 50.381728
64 1 11.080629 5.000000 34.391728
65 1 11.080629 5.000000 36.851728
66 1 11.080629 5.000000 39.311728
67 1 11.080629 5.000000 41.771728
68 1 11.080629 5.000000 44.231728
69 1 11.080629 5.000000 46.691728
70 1 11.080629 5.000000 49.151728
71 1 10.366923 5.000000 35.621728
72 1 10.366923 5.000000 38.081728
73 1 10.366923 5.000000 40.541728
74 1 10.366923 5.000000 43.001728
75 1 10.366923 5.000000 45.461728
76 1 10.366923 5.000000 47.921728
77 1 10.366923 5.000000 50.381728
78 1 12.508385 5.000000 34.391728
79 1 12.508385 5.000000 36.851728
80 1 12.508385 5.000000 39.311728
81 1 12.508385 5.000000 41.771728
82 1 12.508385 5.000000 44.231728
83 1 12.508385 5.000000 46.691728
84 1 12.508385 5.000000 49.151728
85 1 13.222092 5.000000 35.621728
86 1 13.222092 5.000000 38.081728
87 1 13.222092 5.000000 40.541728
88 1 13.222092 5.000000 43.001728
89 1 13.222092 5.000000 45.461728
90 1 13.222092 5.000000 47.921728
91 1 13.222092 5.000000 50.381728
92 1 15.363554 5.000000 34.391728
93 1 15.363554 5.000000 36.851728
94 1 15.363554 5.000000 39.311728
95 1 15.363554 5.000000 41.771728
96 1 15.363554 5.000000 44.231728
97 1 15.363554 5.000000 46.691728
98 1 15.363554 5.000000 49.151728
99 1 14.649848 5.000000 35.621728
100 1 14.649848 5.000000 38.081728
101 1 14.649848 5.000000 40.541728
102 1 14.649848 5.000000 43.001728
103 1 14.649848 5.000000 45.461728
104 1 14.649848 5.000000 47.921728
105 1 14.649848 5.000000 50.381728
106 1 16.791310 5.000000 34.391728
107 1 16.791310 5.000000 36.851728
108 1 16.791310 5.000000 39.311728
109 1 16.791310 5.000000 41.771728
110 1 16.791310 5.000000 44.231728
111 1 16.791310 5.000000 46.691728
112 1 16.791310 5.000000 49.151728
113 2 16.934874 5.000000 51.369228
114 2 2.371044 5.000000 51.369228
115 2 4.088326 5.000000 51.370228
116 2 6.653969 5.000000 51.369228
117 2 8.371251 5.000000 51.370228
118 2 10.936894 5.000000 51.369228
119 2 12.654176 5.000000 51.370228
120 2 15.219819 5.000000 51.369228
121 1 -0.039917 5.000000 8.565500
122 1 -0.039917 5.000000 12.826500
123 1 -0.039917 5.000000 17.087500
124 1 -0.039917 5.000000 21.348000
125 1 -0.039917 5.000000 9.986000
126 1 -0.039917 5.000000 14.246500
127 1 -0.039917 5.000000 18.507500
128 1 -0.039917 5.000000 22.768500
129 1 15.868066 5.000000 10.696000
130 1 15.868066 5.000000 14.957000
131 1 15.868066 5.000000 19.217500
132 1 15.868066 5.000000 23.478500
133 1 15.868066 5.000000 7.855500
134 1 15.868066 5.000000 12.116500
135 1 15.868066 5.000000 16.377000
136 1 15.868066 5.000000 20.638000
137 1 14.644348 5.000000 8.565500
138 1 14.644348 5.000000 12.826500
139 1 14.644348 5.000000 17.087500
140 1 14.644348 5.000000 21.348000
141 1 13.420631 5.000000 10.696000
142 1 13.420631 5.000000 14.957000
143 1 13.420631 5.000000 19.217500
144 1 13.420631 5.000000 23.478500
145 1 14.644348 5.000000 9.986000
146 1 14.644348 5.000000 14.246500
147 1 14.644348 5.000000 18.507500
148 1 14.644348 5.000000 22.768500
149 1 13.420631 5.000000 7.855500
150 1 13.420631 5.000000 12.116500
151 1 13.420631 5.000000 16.377000
152 1 13.420631 5.000000 20.638000
153 1 12.197085 5.000000 8.565500
154 1 12.197085 5.000000 12.826500
155 1 12.197085 5.000000 17.087500
156 1 12.197085 5.000000 21.348000
157 1 10.973368 5.000000 10.696000
158 1 10.973368 5.000000 14.957000
159 1 10.973368 5.000000 19.217500
160 1 10.973368 5.000000 23.478500
161 1 12.197085 5.000000 9.986000
162 1 12.197085 5.000000 14.246500
163 1 12.197085 5.000000 18.507500
164 1 12.197085 5.000000 22.768500
165 1 10.973368 5.000000 7.855500
166 1 10.973368 5.000000 12.116500
167 1 10.973368 5.000000 16.377000
168 1 10.973368 5.000000 20.638000
169 1 9.749650 5.000000 8.565500
170 1 9.749650 5.000000 12.826500
171 1 9.749650 5.000000 17.087500
172 1 9.749650 5.000000 21.348000
173 1 8.525933 5.000000 10.696000
174 1 8.525933 5.000000 14.957000
175 1 8.525933 5.000000 19.217500
176 1 8.525933 5.000000 23.478500
177 1 9.749650 5.000000 9.986000
178 1 9.749650 5.000000 14.246500
179 1 9.749650 5.000000 18.507500
180 1 9.749650 5.000000 22.768500
181 1 8.525933 5.000000 7.855500
182 1 8.525933 5.000000 12.116500
183 1 8.525933 5.000000 16.377000
184 1 8.525933 5.000000 20.638000
185 1 7.302216 5.000000 8.565500
186 1 7.302216 5.000000 12.826500
187 1 7.302216 5.000000 17.087500
188 1 7.302216 5.000000 21.348000
189 1 6.078498 5.000000 10.696000
190 1 6.078498 5.000000 14.957000
191 1 6.078498 5.000000 19.217500
192 1 6.078498 5.000000 23.478500
193 1 7.302216 5.000000 9.986000
194 1 7.302216 5.000000 14.246500
195 1 7.302216 5.000000 18.507500
196 1 7.302216 5.000000 22.768500
197 1 6.078498 5.000000 7.855500
198 1 6.078498 5.000000 12.116500
199 1 6.078498 5.000000 16.377000
200 1 6.078498 5.000000 20.638000
201 1 4.854781 5.000000 8.565500
202 1 4.854781 5.000000 12.826500
203 1 4.854781 5.000000 17.087500
204 1 4.854781 5.000000 21.348000
205 1 3.631235 5.000000 10.696000
206 1 3.631235 5.000000 14.957000
207 1 3.631235 5.000000 19.217500
208 1 3.631235 5.000000 23.478500
209 1 4.854781 5.000000 9.986000
210 1 4.854781 5.000000 14.246500
211 1 4.854781 5.000000 18.507500
212 1 4.854781 5.000000 22.768500
213 1 3.631235 5.000000 7.855500
214 1 3.631235 5.000000 12.116500
215 1 3.631235 5.000000 16.377000
216 1 3.631235 5.000000 20.638000
217 1 2.407518 5.000000 8.565500
218 1 2.407518 5.000000 12.826500
219 1 2.407518 5.000000 17.087500
220 1 2.407518 5.000000 21.348000
221 1 1.183800 5.000000 10.696000
222 1 1.183800 5.000000 14.957000
223 1 1.183800 5.000000 19.217500
224 1 1.183800 5.000000 23.478500
225 1 2.407518 5.000000 9.986000
226 1 2.407518 5.000000 14.246500
227 1 2.407518 5.000000 18.507500
228 1 2.407518 5.000000 22.768500
229 1 1.183800 5.000000 7.855500
230 1 1.183800 5.000000 12.116500
231 1 1.183800 5.000000 16.377000
232 1 1.183800 5.000000 20.638000
233 2 15.865667 5.000000 6.715500
234 2 13.423030 5.000000 6.715500
235 2 10.975766 5.000000 6.715500
236 2 8.528332 5.000000 6.715500
237 2 6.080897 5.000000 6.715500
238 2 3.633634 5.000000 6.715500
239 2 1.181402 5.000000 6.715500
240 2 1.546529 0.681399 24.496849
241 2 16.774879 7.228197 29.198528
242 2 7.409405 1.544558 23.500000
243 2 11.072815 2.541782 26.241956
244 2 4.219151 2.481898 23.500000
245 2 15.401527 3.533680 25.259719
246 2 12.785665 6.495155 25.838440
247 2 7.162331 8.473782 25.333285
248 2 10.390557 3.621222 28.191150
249 2 7.841404 0.288875 27.176506
250 2 16.864554 7.313636 26.418521
251 2 11.575056 0.729416 30.190602
252 2 3.232937 5.421833 28.889532
253 2 7.904359 1.751258 28.361455
254 2 10.676900 5.512871 29.537623
255 2 3.003547 5.585365 28.612650
256 2 14.219356 3.867537 30.676964
257 2 15.333108 8.206041 27.870099
258 2 3.542365 9.813075 34.265793
259 2 1.612390 2.553784 29.261265
260 2 8.289337 4.184314 30.725455
261 2 6.217814 4.641568 34.315228
262 2 6.944270 9.722369 28.378810
263 2 14.961217 6.036167 32.442994
264 2 1.230914 6.792439 32.207447
265 2 7.898289 5.323002 31.768465
266 2 16.841438 7.065291 28.180125
267 2 10.754469 7.776476 31.014384
268 1 7.328526 4.348493 24.728522
269 1 5.486879 7.202524 24.855509
270 1 14.881923 8.059246 27.917036
271 1 10.109463 2.266619 26.665062
272 1 7.352379 1.385148 24.997971
273 1 6.719377 3.685052 24.642238
274 1 2.972162 8.366043 24.859138
275 1 10.367083 9.676471 26.380670
276 1 11.840278 7.094736 24.229895
277 1 17.006808 7.145370 26.497517
278 1 2.880143 7.958686 25.405783
279 1 6.584761 9.094919 25.419255
280 1 9.099355 0.833374 26.209658
281 1 9.113364 4.623486 25.729857
282 1 6.776284 6.902021 28.566702
283 1 8.900783 8.546476 24.681934
284 1 1.165265 6.473453 27.581494
285 1 8.936796 8.718149 32.597902
286 1 13.852988 2.515539 31.370507
287 1 8.493050 5.732953 31.015773
288 1 12.174393 7.048296 27.556999
289 1 6.029438 9.294011 29.609149
290 1 7.980949 4.806384 33.510818
291 1 3.971426 6.067425 34.315228
292 1 15.481788 8.859733 29.371276
293 1 16.567128 8.298044 32.232847
294 1 6.815237 8.750947 26.152019
295 1 11.041753 9.680173 34.315228
296 1 9.459835 7.081522 32.799018
297 1 15.008718 3.944321 30.533750
298 1 15.355849 7.369084 34.315228
299 1 5.693171 8.951168 34.315228
300 1 10.927316 0.533628 34.315228
