300
Atoms. Timestep: 0
35337120              2.864128                     5             36.757013
35337120              2.864128                     5             39.217013
35337120              2.864128                     5             41.677013
35337120              2.864128                     5             44.137013
35337120              2.864128                     5             46.597013
35337120              2.864128                     5             49.057013
35337120              2.864128                     5              1.517013
35337120              5.005591                     5             35.527013
35337120              5.005591                     5             37.987013
35337120              5.005591                     5             40.447013
35337120              5.005591                     5             42.907013
35337120              5.005591                     5             45.367013
35337120              5.005591                     5             47.827013
35337120              5.005591                     5     0.287013000000002
35337120              4.291884                     5             36.757013
35337120              4.291884                     5             39.217013
35337120              4.291884                     5             41.677013
35337120              4.291884                     5             44.137013
35337120              4.291884                     5             46.597013
35337120              4.291884                     5             49.057013
35337120              4.291884                     5              1.517013
35337120              6.433346                     5             35.527013
35337120              6.433346                     5             37.987013
35337120              6.433346                     5             40.447013
35337120              6.433346                     5             42.907013
35337120              6.433346                     5             45.367013
35337120              6.433346                     5             47.827013
35337120              6.433346                     5     0.287013000000002
35337120              7.147053                     5             36.757013
35337120              7.147053                     5             39.217013
35337088              7.147053                     5             41.677013
35337088              7.147053                     5             44.137013
35337088              7.147053                     5             46.597013
35337088              7.147053                     5             49.057013
35337088              7.147053                     5              1.517013
35337088              9.288516                     5             35.527013
35337088              9.288516                     5             37.987013
35337088              9.288516                     5             40.447013
35337088              9.288516                     5             42.907013
35337088              9.288516                     5             45.367013
35337088              9.288516                     5             47.827013
35337088              9.288516                     5     0.287013000000002
35337088              8.574809                     5             36.757013
35337088              8.574809                     5             39.217013
35337088              8.574809                     5             41.677013
35337088              8.574809                     5             44.137013
35337088              8.574809                     5             46.597013
35337088              8.574809                     5             49.057013
35337088              8.574809                     5              1.517013
35337088             10.716271                     5             35.527013
35337088             10.716271                     5             37.987013
35337088             10.716271                     5             40.447013
35337088             10.716271                     5             42.907013
35337088             10.716271                     5             45.367013
35337088             10.716271                     5             47.827013
35337088             10.716271                     5     0.287013000000002
35337088             11.429978                     5             36.757013
35337088             11.429978                     5             39.217013
35337088             11.429978                     5             41.677013
35337088             11.429978                     5             44.137013
35337088             11.429978                     5             46.597013
35337088             11.429978                     5             49.057013
35337088             11.429978                     5              1.517013
35337088             13.571441                     5             35.527013
35337088             13.571441                     5             37.987013
35337088             13.571441                     5             40.447013
35337088             13.571441                     5             42.907013
35337088             13.571441                     5             45.367013
35337088             13.571441                     5             47.827013
35337088             13.571441                     5     0.287013000000002
35337088             12.857734                     5             36.757013
35337088             12.857734                     5             39.217013
35337088             12.857734                     5             41.677013
35337088             12.857734                     5             44.137013
35337088             12.857734                     5             46.597013
35337088             12.857734                     5             49.057013
35337088             12.857734                     5              1.517013
35337088             14.999196                     5             35.527013
35337088             14.999196                     5             37.987013
35337088             14.999196                     5             40.447013
35337088             14.999196                     5             42.907013
35337088             14.999196                     5             45.367013
35337088             14.999196                     5             47.827013
35337088             14.999196                     5     0.287013000000002
35337088             15.712903                     5             36.757013
35337088             15.712903                     5             39.217013
35337088             15.712903                     5             41.677013
35337088             15.712903                     5             44.137013
35337088             15.712903                     5             46.597013
35337088             15.712903                     5             49.057013
35337088             15.712903                     5              1.517013
35337088              0.722666                     5             35.527013
35337088              0.722666                     5             37.987013
35337088              0.722666                     5             40.447013
35337088              0.722666                     5             42.907013
35337088              0.722666                     5             45.367013
35337088              0.722666                     5             47.827013
35337088              0.722666                     5     0.287013000000002
35337088              0.008959                     5             36.757013
35337088              0.008959                     5             39.217013
35337088              0.008959                     5             41.677013
35337088              0.008959                     5             44.137013
35337088              0.008959                     5             46.597013
35337088              0.008959                     5             49.057013
35337088              0.008959                     5              1.517013
35337088              2.150421                     5             35.527013
35337088              2.150421                     5             37.987013
35337088              2.150421                     5             40.447013
35337088              2.150421                     5             42.907013
35337088              2.150421                     5             45.367013
35337088              2.150421                     5             47.827013
35337088              2.150421                     5     0.287013000000002
35337120              2.293985                     5              2.504513
35337120              4.861856                     5              2.504513
35337120              6.579137                     5              2.505513
35337120              9.144781                     5              2.504513
35337120             10.862062                     5              2.505513
35337120             13.427706                     5              2.504513
35337120             15.144987                     5              2.505513
35337120              0.578931                     5              2.504513
35337088             17.091783                     5                8.5655
35337088             17.091783                     5               12.8265
35337088             17.091783                     5               17.0875
35337088             17.091783                     5                21.348
35337088             17.091783                     5                 9.986
35337088             17.091783                     5               14.2465
35337088             17.091783                     5               18.5075
35337088             17.091783                     5               22.7685
35337088             15.868066                     5                10.696
35337088             15.868066                     5                14.957
35337088             15.868066                     5               19.2175
35337088             15.868066                     5               23.4785
35337088             15.868066                     5                7.8555
35337088             15.868066                     5               12.1165
35337088             15.868066                     5                16.377
35337088             15.868066                     5                20.638
35337088             14.644348                     5                8.5655
35337088             14.644348                     5               12.8265
35337088             14.644348                     5               17.0875
35337088             14.644348                     5                21.348
35337088             13.420631                     5                10.696
35337088             13.420631                     5                14.957
35337088             13.420631                     5               19.2175
35337088             13.420631                     5               23.4785
35337088             14.644348                     5                 9.986
35337088             14.644348                     5               14.2465
35337088             14.644348                     5               18.5075
35337088             14.644348                     5               22.7685
35337088             13.420631                     5                7.8555
35337088             13.420631                     5               12.1165
35337088             13.420631                     5                16.377
35337088             13.420631                     5                20.638
35337088             12.197085                     5                8.5655
35337088             12.197085                     5               12.8265
35337088             12.197085                     5               17.0875
35337088             12.197085                     5                21.348
35337088             10.973368                     5                10.696
35337088             10.973368                     5                14.957
35337088             10.973368                     5               19.2175
35337088             10.973368                     5               23.4785
35337088             12.197085                     5                 9.986
35337088             12.197085                     5               14.2465
35337088             12.197085                     5               18.5075
35337088             12.197085                     5               22.7685
35337088             10.973368                     5                7.8555
35337088             10.973368                     5               12.1165
35337088             10.973368                     5                16.377
35337088             10.973368                     5                20.638
35337088               9.74965                     5                8.5655
35337088               9.74965                     5               12.8265
35337088               9.74965                     5               17.0875
35337088               9.74965                     5                21.348
35337088              8.525933                     5                10.696
35337088              8.525933                     5                14.957
35337088              8.525933                     5               19.2175
35337088              8.525933                     5               23.4785
35337088               9.74965                     5                 9.986
35337088               9.74965                     5               14.2465
35337088               9.74965                     5               18.5075
35337088               9.74965                     5               22.7685
35337088              8.525933                     5                7.8555
35337088              8.525933                     5               12.1165
35337088              8.525933                     5                16.377
35337088              8.525933                     5                20.638
35337088              7.302216                     5                8.5655
35337088              7.302216                     5               12.8265
35337088              7.302216                     5               17.0875
35337088              7.302216                     5                21.348
35337088              6.078498                     5                10.696
35337088              6.078498                     5                14.957
35337088              6.078498                     5               19.2175
35337088              6.078498                     5               23.4785
35337088              7.302216                     5                 9.986
35337088              7.302216                     5               14.2465
35337088              7.302216                     5               18.5075
35337088              7.302216                     5               22.7685
35337088              6.078498                     5                7.8555
35337088              6.078498                     5               12.1165
35337088              6.078498                     5                16.377
35337088              6.078498                     5                20.638
35337088              4.854781                     5                8.5655
35337088              4.854781                     5               12.8265
35337088              4.854781                     5               17.0875
35337088              4.854781                     5                21.348
35337088              3.631235                     5                10.696
35337088              3.631235                     5                14.957
35337088              3.631235                     5               19.2175
35337088              3.631235                     5               23.4785
35337088              4.854781                     5                 9.986
35337088              4.854781                     5               14.2465
35337088              4.854781                     5               18.5075
35337088              4.854781                     5               22.7685
35337088              3.631235                     5                7.8555
35337088              3.631235                     5               12.1165
35337088              3.631235                     5                16.377
35337088              3.631235                     5                20.638
35337088              2.407518                     5                8.5655
35337088              2.407518                     5               12.8265
35337088              2.407518                     5               17.0875
35337088              2.407518                     5                21.348
35337088                1.1838                     5                10.696
35337088                1.1838                     5                14.957
35337088                1.1838                     5               19.2175
35337088                1.1838                     5               23.4785
35337088              2.407518                     5                 9.986
35337088              2.407518                     5               14.2465
35337088              2.407518                     5               18.5075
35337088              2.407518                     5               22.7685
35337088                1.1838                     5                7.8555
35337088                1.1838                     5               12.1165
35337088                1.1838                     5                16.377
35337088                1.1838                     5                20.638
35337120             15.865667                     5                6.7155
35337120              13.42303                     5                6.7155
35337120             10.975766                     5                6.7155
35337120              8.528332                     5                6.7155
35337120              6.080897                     5                6.7155
35337120              3.633634                     5                6.7155
35337120              1.181402                     5                6.7155
35337120             16.859189              3.440151             27.351822
35337120              8.148785              2.381221             27.529018
35337120             12.445489               6.90132             27.151356
35337120              1.671813              7.968244              24.70708
35337120             10.003495              6.499032             24.397839
35337120              11.09365              8.396695             28.842786
35337120               11.5824              7.470605             24.991385
35337120              2.507286              9.948195             26.159685
35337120             14.590114              8.978403             25.239318
35337120              13.18702              9.305991             29.323648
35337120             13.104167              5.717601             28.164873
35337120              5.925423               2.37272             27.555446
35337120              1.359394              6.108362             31.339586
35337120              2.552351              6.685727             28.815143
35337120              1.342099              2.148138             26.618903
35337120             14.154249              1.607461             28.916296
35337120              8.219254              1.180747             30.427623
35337120              9.786512              1.652432             25.557573
35337120             10.988625              0.195493             32.685203
35337120              1.410533              1.058229             34.625919
35337120              3.112686              2.250425             27.791338
35337120              2.110298              8.154845             35.450513
35337120              7.749427              2.359971             33.868715
35337120             13.336661              0.403624             33.009716
35337120              2.232752              2.520638             34.640999
35337120             16.945465              3.882461             33.741269
35337120              6.872959              6.309588             29.436727
35337120              6.794357              6.610063             29.223487
35337088             10.647466                3.2621             25.038799
35337088              2.588029              2.243148             25.209991
35337088             14.590812              6.739247             25.000766
35337088             10.643331              7.235379             27.427385
35337088              7.796258              9.058445              24.64929
35337088              5.823425              4.070474                  23.5
35337088              3.757061              7.471561             24.042813
35337088              7.922591              5.422743             24.323439
35337088              2.320746              1.192589             24.200889
35337088             14.259951              7.912582             25.831558
35337088             14.268533              9.382402             28.934992
35337088               5.74285              1.895923             31.466093
35337088              3.864087              3.933064             32.970281
35337088             11.551714              5.979945             27.235611
35337088              7.037063              9.185954              33.04427
35337088             14.612476              2.320556             26.786387
35337088             15.175871              6.597069             29.858146
35337088              9.354201              1.613588             31.834623
35337088             11.574152              5.784724             28.685504
35337088             13.705229              7.936889             30.729388
35337088              9.987372               6.95683             29.231268
35337088              2.732844              0.093629             28.011953
35337088              3.482988              9.611537             29.534108
35337088              5.167856              7.168657             35.450513
35337088             11.544079              2.668837             34.295275
35337088              1.381005              6.016199             28.872927
35337088              4.706692               8.58497             31.514977
35337088              11.68918              0.807315             35.450513
35337088             13.858644              0.000704             34.446323
35337088              1.468635              0.781889             32.243724
35337088             10.347741              6.982428             32.005499
35337088             15.933601               9.46252             35.450513
35337088             13.623014              9.443774             35.385873
300
Atoms. Timestep: 10
35337120      2.86411360140819                     5      36.7570547783757
35337120      2.86411360140819                     5      39.2170547783757
35337120      2.86411360140819                     5      41.6770547783757
35337120      2.86411360140819                     5      44.1370547783757
35337120      2.86411360140819                     5      46.5970547783757
35337120      2.86411360140819                     5      49.0570547783757
35337120      2.86411360140819                     5      1.51705477837569
35337120      5.00557660140819                     5      35.5270547783757
35337120      5.00557660140819                     5      37.9870547783757
35337120      5.00557660140819                     5      40.4470547783757
35337120      5.00557660140819                     5      42.9070547783757
35337120      5.00557660140819                     5      45.3670547783757
35337120      5.00557660140819                     5      47.8270547783757
35337120      5.00557660140819                     5     0.287054778375698
35337120      4.29186960140819                     5      36.7570547783757
35337120      4.29186960140819                     5      39.2170547783757
35337120      4.29186960140819                     5      41.6770547783757
35337120      4.29186960140819                     5      44.1370547783757
35337120      4.29186960140819                     5      46.5970547783757
35337120      4.29186960140819                     5      49.0570547783757
35337120      4.29186960140819                     5      1.51705477837569
35337120      6.43333160140819                     5      35.5270547783757
35337120      6.43333160140819                     5      37.9870547783757
35337120      6.43333160140819                     5      40.4470547783757
35337120      6.43333160140819                     5      42.9070547783757
35337120      6.43333160140819                     5      45.3670547783757
35337120      6.43333160140819                     5      47.8270547783757
35337120      6.43333160140819                     5     0.287054778375698
35337120      7.14703860140819                     5      36.7570547783757
35337120      7.14703860140819                     5      39.2170547783757
35337088      7.14703860140819                     5      41.6770547783757
35337088      7.14703860140819                     5      44.1370547783757
35337088      7.14703860140819                     5      46.5970547783757
35337088      7.14703860140819                     5      49.0570547783757
35337088      7.14703860140819                     5      1.51705477837569
35337088      9.28850160140819                     5      35.5270547783757
35337088      9.28850160140819                     5      37.9870547783757
35337088      9.28850160140819                     5      40.4470547783757
35337088      9.28850160140819                     5      42.9070547783757
35337088      9.28850160140819                     5      45.3670547783757
35337088      9.28850160140819                     5      47.8270547783757
35337088      9.28850160140819                     5     0.287054778375698
35337088      8.57479460140819                     5      36.7570547783757
35337088      8.57479460140819                     5      39.2170547783757
35337088      8.57479460140819                     5      41.6770547783757
35337088      8.57479460140819                     5      44.1370547783757
35337088      8.57479460140819                     5      46.5970547783757
35337088      8.57479460140819                     5      49.0570547783757
35337088      8.57479460140819                     5      1.51705477837569
35337088      10.7162566014082                     5      35.5270547783757
35337088      10.7162566014082                     5      37.9870547783757
35337088      10.7162566014082                     5      40.4470547783757
35337088      10.7162566014082                     5      42.9070547783757
35337088      10.7162566014082                     5      45.3670547783757
35337088      10.7162566014082                     5      47.8270547783757
35337088      10.7162566014082                     5     0.287054778375698
35337088      11.4299636014082                     5      36.7570547783757
35337088      11.4299636014082                     5      39.2170547783757
35337088      11.4299636014082                     5      41.6770547783757
35337088      11.4299636014082                     5      44.1370547783757
35337088      11.4299636014082                     5      46.5970547783757
35337088      11.4299636014082                     5      49.0570547783757
35337088      11.4299636014082                     5      1.51705477837569
35337088      13.5714266014082                     5      35.5270547783757
35337088      13.5714266014082                     5      37.9870547783757
35337088      13.5714266014082                     5      40.4470547783757
35337088      13.5714266014082                     5      42.9070547783757
35337088      13.5714266014082                     5      45.3670547783757
35337088      13.5714266014082                     5      47.8270547783757
35337088      13.5714266014082                     5     0.287054778375698
35337088      12.8577196014082                     5      36.7570547783757
35337088      12.8577196014082                     5      39.2170547783757
35337088      12.8577196014082                     5      41.6770547783757
35337088      12.8577196014082                     5      44.1370547783757
35337088      12.8577196014082                     5      46.5970547783757
35337088      12.8577196014082                     5      49.0570547783757
35337088      12.8577196014082                     5      1.51705477837569
35337088      14.9991816014082                     5      35.5270547783757
35337088      14.9991816014082                     5      37.9870547783757
35337088      14.9991816014082                     5      40.4470547783757
35337088      14.9991816014082                     5      42.9070547783757
35337088      14.9991816014082                     5      45.3670547783757
35337088      14.9991816014082                     5      47.8270547783757
35337088      14.9991816014082                     5     0.287054778375698
35337088      15.7128886014082                     5      36.7570547783757
35337088      15.7128886014082                     5      39.2170547783757
35337088      15.7128886014082                     5      41.6770547783757
35337088      15.7128886014082                     5      44.1370547783757
35337088      15.7128886014082                     5      46.5970547783757
35337088      15.7128886014082                     5      49.0570547783757
35337088      15.7128886014082                     5      1.51705477837569
35337088     0.722651601408193                     5      35.5270547783757
35337088     0.722651601408193                     5      37.9870547783757
35337088     0.722651601408193                     5      40.4470547783757
35337088     0.722651601408193                     5      42.9070547783757
35337088     0.722651601408193                     5      45.3670547783757
35337088     0.722651601408193                     5      47.8270547783757
35337088     0.722651601408193                     5     0.287054778375698
35337088   0.00894460140819297                     5      36.7570547783757