search structure

300 atoms
2  atom types

0   17.131700 xlo xhi
0   10.000000 ylo yhi
0   50.000000 zlo zhi

Atoms

1 2 2.864128 5.000000 36.757013
2 2 2.864128 5.000000 39.217013
3 2 2.864128 5.000000 41.677013
4 2 2.864128 5.000000 44.137013
5 2 2.864128 5.000000 46.597013
6 2 2.864128 5.000000 49.057013
7 2 2.864128 5.000000 51.517013
8 2 5.005591 5.000000 35.527013
9 2 5.005591 5.000000 37.987013
10 2 5.005591 5.000000 40.447013
11 2 5.005591 5.000000 42.907013
12 2 5.005591 5.000000 45.367013
13 2 5.005591 5.000000 47.827013
14 2 5.005591 5.000000 50.287013
15 2 4.291884 5.000000 36.757013
16 2 4.291884 5.000000 39.217013
17 2 4.291884 5.000000 41.677013
18 2 4.291884 5.000000 44.137013
19 2 4.291884 5.000000 46.597013
20 2 4.291884 5.000000 49.057013
21 2 4.291884 5.000000 51.517013
22 2 6.433346 5.000000 35.527013
23 2 6.433346 5.000000 37.987013
24 2 6.433346 5.000000 40.447013
25 2 6.433346 5.000000 42.907013
26 2 6.433346 5.000000 45.367013
27 2 6.433346 5.000000 47.827013
28 2 6.433346 5.000000 50.287013
29 2 7.147053 5.000000 36.757013
30 2 7.147053 5.000000 39.217013
31 1 7.147053 5.000000 41.677013
32 1 7.147053 5.000000 44.137013
33 1 7.147053 5.000000 46.597013
34 1 7.147053 5.000000 49.057013
35 1 7.147053 5.000000 51.517013
36 1 9.288516 5.000000 35.527013
37 1 9.288516 5.000000 37.987013
38 1 9.288516 5.000000 40.447013
39 1 9.288516 5.000000 42.907013
40 1 9.288516 5.000000 45.367013
41 1 9.288516 5.000000 47.827013
42 1 9.288516 5.000000 50.287013
43 1 8.574809 5.000000 36.757013
44 1 8.574809 5.000000 39.217013
45 1 8.574809 5.000000 41.677013
46 1 8.574809 5.000000 44.137013
47 1 8.574809 5.000000 46.597013
48 1 8.574809 5.000000 49.057013
49 1 8.574809 5.000000 51.517013
50 1 10.716271 5.000000 35.527013
51 1 10.716271 5.000000 37.987013
52 1 10.716271 5.000000 40.447013
53 1 10.716271 5.000000 42.907013
54 1 10.716271 5.000000 45.367013
55 1 10.716271 5.000000 47.827013
56 1 10.716271 5.000000 50.287013
57 1 11.429978 5.000000 36.757013
58 1 11.429978 5.000000 39.217013
59 1 11.429978 5.000000 41.677013
60 1 11.429978 5.000000 44.137013
61 1 11.429978 5.000000 46.597013
62 1 11.429978 5.000000 49.057013
63 1 11.429978 5.000000 51.517013
64 1 13.571441 5.000000 35.527013
65 1 13.571441 5.000000 37.987013
66 1 13.571441 5.000000 40.447013
67 1 13.571441 5.000000 42.907013
68 1 13.571441 5.000000 45.367013
69 1 13.571441 5.000000 47.827013
70 1 13.571441 5.000000 50.287013
71 1 12.857734 5.000000 36.757013
72 1 12.857734 5.000000 39.217013
73 1 12.857734 5.000000 41.677013
74 1 12.857734 5.000000 44.137013
75 1 12.857734 5.000000 46.597013
76 1 12.857734 5.000000 49.057013
77 1 12.857734 5.000000 51.517013
78 1 14.999196 5.000000 35.527013
79 1 14.999196 5.000000 37.987013
80 1 14.999196 5.000000 40.447013
81 1 14.999196 5.000000 42.907013
82 1 14.999196 5.000000 45.367013
83 1 14.999196 5.000000 47.827013
84 1 14.999196 5.000000 50.287013
85 1 15.712903 5.000000 36.757013
86 1 15.712903 5.000000 39.217013
87 1 15.712903 5.000000 41.677013
88 1 15.712903 5.000000 44.137013
89 1 15.712903 5.000000 46.597013
90 1 15.712903 5.000000 49.057013
91 1 15.712903 5.000000 51.517013
92 1 0.722666 5.000000 35.527013
93 1 0.722666 5.000000 37.987013
94 1 0.722666 5.000000 40.447013
95 1 0.722666 5.000000 42.907013
96 1 0.722666 5.000000 45.367013
97 1 0.722666 5.000000 47.827013
98 1 0.722666 5.000000 50.287013
99 1 0.008959 5.000000 36.757013
100 1 0.008959 5.000000 39.217013
101 1 0.008959 5.000000 41.677013
102 1 0.008959 5.000000 44.137013
103 1 0.008959 5.000000 46.597013
104 1 0.008959 5.000000 49.057013
105 1 0.008959 5.000000 51.517013
106 1 2.150421 5.000000 35.527013
107 1 2.150421 5.000000 37.987013
108 1 2.150421 5.000000 40.447013
109 1 2.150421 5.000000 42.907013
110 1 2.150421 5.000000 45.367013
111 1 2.150421 5.000000 47.827013
112 1 2.150421 5.000000 50.287013
113 2 2.293985 5.000000 52.504513
114 2 4.861856 5.000000 52.504513
115 2 6.579137 5.000000 52.505513
116 2 9.144781 5.000000 52.504513
117 2 10.862062 5.000000 52.505513
118 2 13.427706 5.000000 52.504513
119 2 15.144987 5.000000 52.505513
120 2 0.578931 5.000000 52.504513
121 1 -0.039917 5.000000 8.565500
122 1 -0.039917 5.000000 12.826500
123 1 -0.039917 5.000000 17.087500
124 1 -0.039917 5.000000 21.348000
125 1 -0.039917 5.000000 9.986000
126 1 -0.039917 5.000000 14.246500
127 1 -0.039917 5.000000 18.507500
128 1 -0.039917 5.000000 22.768500
129 1 15.868066 5.000000 10.696000
130 1 15.868066 5.000000 14.957000
131 1 15.868066 5.000000 19.217500
132 1 15.868066 5.000000 23.478500
133 1 15.868066 5.000000 7.855500
134 1 15.868066 5.000000 12.116500
135 1 15.868066 5.000000 16.377000
136 1 15.868066 5.000000 20.638000
137 1 14.644348 5.000000 8.565500
138 1 14.644348 5.000000 12.826500
139 1 14.644348 5.000000 17.087500
140 1 14.644348 5.000000 21.348000
141 1 13.420631 5.000000 10.696000
142 1 13.420631 5.000000 14.957000
143 1 13.420631 5.000000 19.217500
144 1 13.420631 5.000000 23.478500
145 1 14.644348 5.000000 9.986000
146 1 14.644348 5.000000 14.246500
147 1 14.644348 5.000000 18.507500
148 1 14.644348 5.000000 22.768500
149 1 13.420631 5.000000 7.855500
150 1 13.420631 5.000000 12.116500
151 1 13.420631 5.000000 16.377000
152 1 13.420631 5.000000 20.638000
153 1 12.197085 5.000000 8.565500
154 1 12.197085 5.000000 12.826500
155 1 12.197085 5.000000 17.087500
156 1 12.197085 5.000000 21.348000
157 1 10.973368 5.000000 10.696000
158 1 10.973368 5.000000 14.957000
159 1 10.973368 5.000000 19.217500
160 1 10.973368 5.000000 23.478500
161 1 12.197085 5.000000 9.986000
162 1 12.197085 5.000000 14.246500
163 1 12.197085 5.000000 18.507500
164 1 12.197085 5.000000 22.768500
165 1 10.973368 5.000000 7.855500
166 1 10.973368 5.000000 12.116500
167 1 10.973368 5.000000 16.377000
168 1 10.973368 5.000000 20.638000
169 1 9.749650 5.000000 8.565500
170 1 9.749650 5.000000 12.826500
171 1 9.749650 5.000000 17.087500
172 1 9.749650 5.000000 21.348000
173 1 8.525933 5.000000 10.696000
174 1 8.525933 5.000000 14.957000
175 1 8.525933 5.000000 19.217500
176 1 8.525933 5.000000 23.478500
177 1 9.749650 5.000000 9.986000
178 1 9.749650 5.000000 14.246500
179 1 9.749650 5.000000 18.507500
180 1 9.749650 5.000000 22.768500
181 1 8.525933 5.000000 7.855500
182 1 8.525933 5.000000 12.116500
183 1 8.525933 5.000000 16.377000
184 1 8.525933 5.000000 20.638000
185 1 7.302216 5.000000 8.565500
186 1 7.302216 5.000000 12.826500
187 1 7.302216 5.000000 17.087500
188 1 7.302216 5.000000 21.348000
189 1 6.078498 5.000000 10.696000
190 1 6.078498 5.000000 14.957000
191 1 6.078498 5.000000 19.217500
192 1 6.078498 5.000000 23.478500
193 1 7.302216 5.000000 9.986000
194 1 7.302216 5.000000 14.246500
195 1 7.302216 5.000000 18.507500
196 1 7.302216 5.000000 22.768500
197 1 6.078498 5.000000 7.855500
198 1 6.078498 5.000000 12.116500
199 1 6.078498 5.000000 16.377000
200 1 6.078498 5.000000 20.638000
201 1 4.854781 5.000000 8.565500
202 1 4.854781 5.000000 12.826500
203 1 4.854781 5.000000 17.087500
204 1 4.854781 5.000000 21.348000
205 1 3.631235 5.000000 10.696000
206 1 3.631235 5.000000 14.957000
207 1 3.631235 5.000000 19.217500
208 1 3.631235 5.000000 23.478500
209 1 4.854781 5.000000 9.986000
210 1 4.854781 5.000000 14.246500
211 1 4.854781 5.000000 18.507500
212 1 4.854781 5.000000 22.768500
213 1 3.631235 5.000000 7.855500
214 1 3.631235 5.000000 12.116500
215 1 3.631235 5.000000 16.377000
216 1 3.631235 5.000000 20.638000
217 1 2.407518 5.000000 8.565500
218 1 2.407518 5.000000 12.826500
219 1 2.407518 5.000000 17.087500
220 1 2.407518 5.000000 21.348000
221 1 1.183800 5.000000 10.696000
222 1 1.183800 5.000000 14.957000
223 1 1.183800 5.000000 19.217500
224 1 1.183800 5.000000 23.478500
225 1 2.407518 5.000000 9.986000
226 1 2.407518 5.000000 14.246500
227 1 2.407518 5.000000 18.507500
228 1 2.407518 5.000000 22.768500
229 1 1.183800 5.000000 7.855500
230 1 1.183800 5.000000 12.116500
231 1 1.183800 5.000000 16.377000
232 1 1.183800 5.000000 20.638000
233 2 15.865667 5.000000 6.715500
234 2 13.423030 5.000000 6.715500
235 2 10.975766 5.000000 6.715500
236 2 8.528332 5.000000 6.715500
237 2 6.080897 5.000000 6.715500
238 2 3.633634 5.000000 6.715500
239 2 1.181402 5.000000 6.715500
240 2 16.859189 3.440151 27.351822
241 2 8.148785 2.381221 27.529018
242 2 12.445489 6.901320 27.151356
243 2 1.671813 7.968244 24.707080
244 2 10.003495 6.499032 24.397839
245 2 11.093650 8.396695 28.842786
246 2 11.582400 7.470605 24.991385
247 2 2.507286 9.948195 26.159685
248 2 14.590114 8.978403 25.239318
249 2 13.187020 9.305991 29.323648
250 2 13.104167 5.717601 28.164873
251 2 5.925423 2.372720 27.555446
252 2 1.359394 6.108362 31.339586
253 2 2.552351 6.685727 28.815143
254 2 1.342099 2.148138 26.618903
255 2 14.154249 1.607461 28.916296
256 2 8.219254 1.180747 30.427623
257 2 9.786512 1.652432 25.557573
258 2 10.988625 0.195493 32.685203
259 2 1.410533 1.058229 34.625919
260 2 3.112686 2.250425 27.791338
261 2 2.110298 8.154845 35.450513
262 2 7.749427 2.359971 33.868715
263 2 13.336661 0.403624 33.009716
264 2 2.232752 2.520638 34.640999
265 2 16.945465 3.882461 33.741269
266 2 6.872959 6.309588 29.436727
267 2 6.794357 6.610063 29.223487
268 1 10.647466 3.262100 25.038799
269 1 2.588029 2.243148 25.209991
270 1 14.590812 6.739247 25.000766
271 1 10.643331 7.235379 27.427385
272 1 7.796258 9.058445 24.649290
273 1 5.823425 4.070474 23.500000
274 1 3.757061 7.471561 24.042813
275 1 7.922591 5.422743 24.323439
276 1 2.320746 1.192589 24.200889
277 1 14.259951 7.912582 25.831558
278 1 14.268533 9.382402 28.934992
279 1 5.742850 1.895923 31.466093
280 1 3.864087 3.933064 32.970281
281 1 11.551714 5.979945 27.235611
282 1 7.037063 9.185954 33.044270
283 1 14.612476 2.320556 26.786387
284 1 15.175871 6.597069 29.858146
285 1 9.354201 1.613588 31.834623
286 1 11.574152 5.784724 28.685504
287 1 13.705229 7.936889 30.729388
288 1 9.987372 6.956830 29.231268
289 1 2.732844 0.093629 28.011953
290 1 3.482988 9.611537 29.534108
291 1 5.167856 7.168657 35.450513
292 1 11.544079 2.668837 34.295275
293 1 1.381005 6.016199 28.872927
294 1 4.706692 8.584970 31.514977
295 1 11.689180 0.807315 35.450513
296 1 13.858644 0.000704 34.446323
297 1 1.468635 0.781889 32.243724
298 1 10.347741 6.982428 32.005499
299 1 15.933601 9.462520 35.450513
300 1 13.623014 9.443774 35.385873
