300
Atoms. Timestep: 0
21046176             15.735206                     5             36.981482
21046176             15.735206                     5             39.441482
21046176             15.735206                     5             41.901482
21046176             15.735206                     5             44.361482
21046176             15.735206                     5             46.821482
21046176             15.735206                     5             49.281482
21046176             15.735206                     5              1.741482
21046176              0.744969                     5             35.751482
21046176              0.744969                     5             38.211482
21046176              0.744969                     5             40.671482
21046176              0.744969                     5             43.131482
21046176              0.744969                     5             45.591482
21046176              0.744969                     5             48.051482
21046176              0.744969                     5     0.511482000000001
21046176              0.031262                     5             36.981482
21046176              0.031262                     5             39.441482
21046176              0.031262                     5             41.901482
21046176              0.031262                     5             44.361482
21046176              0.031262                     5             46.821482
21046176              0.031262                     5             49.281482
21046176              0.031262                     5              1.741482
21046176              2.172725                     5             35.751482
21046176              2.172725                     5             38.211482
21046176              2.172725                     5             40.671482
21046176              2.172725                     5             43.131482
21046176              2.172725                     5             45.591482
21046176              2.172725                     5             48.051482
21046176              2.172725                     5     0.511482000000001
21046176              2.886431                     5             36.981482
21046176              2.886431                     5             39.441482
21046144              2.886431                     5             41.901482
21046144              2.886431                     5             44.361482
21046144              2.886431                     5             46.821482
21046144              2.886431                     5             49.281482
21046144              2.886431                     5              1.741482
21046144              5.027894                     5             35.751482
21046144              5.027894                     5             38.211482
21046144              5.027894                     5             40.671482
21046144              5.027894                     5             43.131482
21046144              5.027894                     5             45.591482
21046144              5.027894                     5             48.051482
21046144              5.027894                     5     0.511482000000001
21046144              4.314187                     5             36.981482
21046144              4.314187                     5             39.441482
21046144              4.314187                     5             41.901482
21046144              4.314187                     5             44.361482
21046144              4.314187                     5             46.821482
21046144              4.314187                     5             49.281482
21046144              4.314187                     5              1.741482
21046144               6.45565                     5             35.751482
21046144               6.45565                     5             38.211482
21046144               6.45565                     5             40.671482
21046144               6.45565                     5             43.131482
21046144               6.45565                     5             45.591482
21046144               6.45565                     5             48.051482
21046144               6.45565                     5     0.511482000000001
21046144              7.169356                     5             36.981482
21046144              7.169356                     5             39.441482
21046144              7.169356                     5             41.901482
21046144              7.169356                     5             44.361482
21046144              7.169356                     5             46.821482
21046144              7.169356                     5             49.281482
21046144              7.169356                     5              1.741482
21046144              9.310819                     5             35.751482
21046144              9.310819                     5             38.211482
21046144              9.310819                     5             40.671482
21046144              9.310819                     5             43.131482
21046144              9.310819                     5             45.591482
21046144              9.310819                     5             48.051482
21046144              9.310819                     5     0.511482000000001
21046144              8.597112                     5             36.981482
21046144              8.597112                     5             39.441482
21046144              8.597112                     5             41.901482
21046144              8.597112                     5             44.361482
21046144              8.597112                     5             46.821482
21046144              8.597112                     5             49.281482
21046144              8.597112                     5              1.741482
21046144             10.738575                     5             35.751482
21046144             10.738575                     5             38.211482
21046144             10.738575                     5             40.671482
21046144             10.738575                     5             43.131482
21046144             10.738575                     5             45.591482
21046144             10.738575                     5             48.051482
21046144             10.738575                     5     0.511482000000001
21046144             11.452281                     5             36.981482
21046144             11.452281                     5             39.441482
21046144             11.452281                     5             41.901482
21046144             11.452281                     5             44.361482
21046144             11.452281                     5             46.821482
21046144             11.452281                     5             49.281482
21046144             11.452281                     5              1.741482
21046144             13.593744                     5             35.751482
21046144             13.593744                     5             38.211482
21046144             13.593744                     5             40.671482
21046144             13.593744                     5             43.131482
21046144             13.593744                     5             45.591482
21046144             13.593744                     5             48.051482
21046144             13.593744                     5     0.511482000000001
21046144             12.880037                     5             36.981482
21046144             12.880037                     5             39.441482
21046144             12.880037                     5             41.901482
21046144             12.880037                     5             44.361482
21046144             12.880037                     5             46.821482
21046144             12.880037                     5             49.281482
21046144             12.880037                     5              1.741482
21046144               15.0215                     5             35.751482
21046144               15.0215                     5             38.211482
21046144               15.0215                     5             40.671482
21046144               15.0215                     5             43.131482
21046144               15.0215                     5             45.591482
21046144               15.0215                     5             48.051482
21046144               15.0215                     5     0.511482000000001
21046176             15.165063                     5              2.728982
21046176              0.601234                     5              2.728982
21046176              2.318515                     5              2.729982
21046176              4.884159                     5              2.728982
21046176               6.60144                     5              2.729982
21046176              9.167084                     5              2.728982
21046176             10.884365                     5              2.729982
21046176             13.450009                     5              2.728982
21046144             17.091783                     5                8.5655
21046144             17.091783                     5               12.8265
21046144             17.091783                     5               17.0875
21046144             17.091783                     5                21.348
21046144             17.091783                     5                 9.986
21046144             17.091783                     5               14.2465
21046144             17.091783                     5               18.5075
21046144             17.091783                     5               22.7685
21046144             15.868066                     5                10.696
21046144             15.868066                     5                14.957
21046144             15.868066                     5               19.2175
21046144             15.868066                     5               23.4785
21046144             15.868066                     5                7.8555
21046144             15.868066                     5               12.1165
21046144             15.868066                     5                16.377
21046144             15.868066                     5                20.638
21046144             14.644348                     5                8.5655
21046144             14.644348                     5               12.8265
21046144             14.644348                     5               17.0875
21046144             14.644348                     5                21.348
21046144             13.420631                     5                10.696
21046144             13.420631                     5                14.957
21046144             13.420631                     5               19.2175
21046144             13.420631                     5               23.4785
21046144             14.644348                     5                 9.986
21046144             14.644348                     5               14.2465
21046144             14.644348                     5               18.5075
21046144             14.644348                     5               22.7685
21046144             13.420631                     5                7.8555
21046144             13.420631                     5               12.1165
21046144             13.420631                     5                16.377
21046144             13.420631                     5                20.638
21046144             12.197085                     5                8.5655
21046144             12.197085                     5               12.8265
21046144             12.197085                     5               17.0875
21046144             12.197085                     5                21.348
21046144             10.973368                     5                10.696
21046144             10.973368                     5                14.957
21046144             10.973368                     5               19.2175
21046144             10.973368                     5               23.4785
21046144             12.197085                     5                 9.986
21046144             12.197085                     5               14.2465
21046144             12.197085                     5               18.5075
21046144             12.197085                     5               22.7685
21046144             10.973368                     5                7.8555
21046144             10.973368                     5               12.1165
21046144             10.973368                     5                16.377
21046144             10.973368                     5                20.638
21046144               9.74965                     5                8.5655
21046144               9.74965                     5               12.8265
21046144               9.74965                     5               17.0875
21046144               9.74965                     5                21.348
21046144              8.525933                     5                10.696
21046144              8.525933                     5                14.957
21046144              8.525933                     5               19.2175
21046144              8.525933                     5               23.4785
21046144               9.74965                     5                 9.986
21046144               9.74965                     5               14.2465
21046144               9.74965                     5               18.5075
21046144               9.74965                     5               22.7685
21046144              8.525933                     5                7.8555
21046144              8.525933                     5               12.1165
21046144              8.525933                     5                16.377
21046144              8.525933                     5                20.638
21046144              7.302216                     5                8.5655
21046144              7.302216                     5               12.8265
21046144              7.302216                     5               17.0875
21046144              7.302216                     5                21.348
21046144              6.078498                     5                10.696
21046144              6.078498                     5                14.957
21046144              6.078498                     5               19.2175
21046144              6.078498                     5               23.4785
21046144              7.302216                     5                 9.986
21046144              7.302216                     5               14.2465
21046144              7.302216                     5               18.5075
21046144              7.302216                     5               22.7685
21046144              6.078498                     5                7.8555
21046144              6.078498                     5               12.1165
21046144              6.078498                     5                16.377
21046144              6.078498                     5                20.638
21046144              4.854781                     5                8.5655
21046144              4.854781                     5               12.8265
21046144              4.854781                     5               17.0875
21046144              4.854781                     5                21.348
21046144              3.631235                     5                10.696
21046144              3.631235                     5                14.957
21046144              3.631235                     5               19.2175
21046144              3.631235                     5               23.4785
21046144              4.854781                     5                 9.986
21046144              4.854781                     5               14.2465
21046144              4.854781                     5               18.5075
21046144              4.854781                     5               22.7685
21046144              3.631235                     5                7.8555
21046144              3.631235                     5               12.1165
21046144              3.631235                     5                16.377
21046144              3.631235                     5                20.638
21046144              2.407518                     5                8.5655
21046144              2.407518                     5               12.8265
21046144              2.407518                     5               17.0875
21046144              2.407518                     5                21.348
21046144                1.1838                     5                10.696
21046144                1.1838                     5                14.957
21046144                1.1838                     5               19.2175
21046144                1.1838                     5               23.4785
21046144              2.407518                     5                 9.986
21046144              2.407518                     5               14.2465
21046144              2.407518                     5               18.5075
21046144              2.407518                     5               22.7685
21046144                1.1838                     5                7.8555
21046144                1.1838                     5               12.1165
21046144                1.1838                     5                16.377
21046144                1.1838                     5                20.638
21046176             15.865667                     5                6.7155
21046176              13.42303                     5                6.7155
21046176             10.975766                     5                6.7155
21046176              8.528332                     5                6.7155
21046176              6.080897                     5                6.7155
21046176              3.633634                     5                6.7155
21046176              1.181402                     5                6.7155
21046176              6.694075              2.150993             27.811545
21046176              3.481114               4.75557              29.86783
21046176             12.459195              7.405193             35.409786
21046176             13.487618              2.071484             34.895717
21046176             10.150605              3.669366             29.533594
21046176               8.23295              4.799197             33.655207
21046176              5.486666              4.421908             28.209525
21046176              0.066746              6.615693             24.954324
21046176             15.223152               5.56347             28.630354
21046176              10.35624              3.111055             24.112881
21046176              6.996834              9.111662              30.84174
21046176              7.172382              8.805448             25.305518
21046176              3.502836              6.878196             30.916504
21046176              3.006502              2.906947             31.549582
21046176              3.436452              0.542628             34.563075
21046176             13.558144              2.124774             33.536445
21046176              9.379906              2.236546              23.87283
21046176             13.852958              0.829787             34.698563
21046176              8.194918              9.061359              26.80046
21046176              6.853763              6.302142             27.147817
21046176              3.737783               7.44429             32.127521
21046176               5.77164              4.372395             28.032697
21046176              4.323107              3.806866              26.89754
21046176              1.040788              0.840533             29.000016
21046176             11.356405              1.217207             34.156286
21046176              4.075309              7.904071             28.268153
21046176              0.725737              2.209687             33.606386
21046176             10.610694              3.022252              34.56437
21046144              1.382723               1.03415             30.651225
21046144              6.281685              3.171333             32.730313
21046144             14.235309              9.185515             32.871069
21046144             14.769041               5.03198              23.73024
21046144                9.0041              6.911274              23.94635
21046144             12.880937               9.28835             32.741487
21046144              8.241452              1.182304             26.178849
21046144             12.040502              5.092928             31.192693
21046144              7.782985              0.145202             31.340168
21046144              9.903838              8.407219             31.866412
21046144              12.13495              9.678607             34.937992
21046144              2.884923              2.190027             33.835992
21046144             16.853644              2.586831             34.964734
21046144              3.257395              7.418763             24.152097
21046144               2.68347              3.298366              32.91258
21046144              7.101498              5.208534             24.637584
21046144              1.750959               4.37649             30.159912
21046144              3.470541              5.879815             24.201488
21046144              6.878764              5.907153             32.972985
21046144              4.561382              0.450042             27.065695
21046144              7.312383              3.436126             31.164442
21046144             14.931525              8.462712             30.869047
21046144              11.46774              6.335616             34.306898
21046144              9.833568              8.842955             34.307725
21046144             13.103336              5.879179             26.649871
21046144              9.869068              4.873761             30.813252
21046144              6.005571               5.80506             30.713649
21046144             16.075249              8.408167             26.068722
21046144              6.498858              6.613198             24.799674
21046144             16.662593              6.022782             28.658333
21046144             17.011095              3.211701             32.121629
21046144             10.956397              9.682591             33.501086
21046144             11.001705               2.95651             23.689901
300
Atoms. Timestep: 9
21046176      15.7352180788395                     5      36.9814700425793
21046176      15.7352180788395                     5      39.4414700425793
21046176      15.7352180788395                     5      41.9014700425793
21046176      15.7352180788395                     5      44.3614700425793
21046176      15.7352180788395                     5      46.8214700425793
21046176      15.7352180788395                     5      49.2814700425793
21046176      15.7352180788395                     5      1.74147004257932
21046176     0.744981078839517                     5      35.7514700425793
21046176     0.744981078839517                     5      38.2114700425793
21046176     0.744981078839517                     5      40.6714700425793
21046176     0.744981078839517                     5      43.1314700425793
21046176     0.744981078839517                     5      45.5914700425793
21046176     0.744981078839517                     5      48.0514700425793
21046176     0.744981078839517                     5      0.51147004257932
21046176    0.0312740788395172                     5      36.9814700425793
21046176    0.0312740788395172                     5      39.4414700425793
21046176    0.0312740788395172                     5      41.9014700425793
21046176    0.0312740788395172                     5      44.3614700425793
21046176    0.0312740788395172                     5      46.8214700425793
21046176    0.0312740788395172                     5      49.2814700425793
21046176    0.0312740788395172                     5      1.74147004257932
21046176      2.17273707883952                     5      35.7514700425793
21046176      2.17273707883952                     5      38.2114700425793
21046176      2.17273707883952                     5      40.6714700425793
21046176      2.17273707883952                     5      43.1314700425793
21046176      2.17273707883952                     5      45.5914700425793
21046176      2.17273707883952                     5      48.0514700425793
21046176      2.17273707883952                     5      0.51147004257932
21046176      2.88644307883952                     5      36.9814700425793
21046176      2.88644307883952                     5      39.4414700425793
21046144      2.88644307883952                     5      41.9014700425793
21046144      2.88644307883952                     5      44.3614700425793
21046144      2.88644307883952                     5      46.8214700425793
21046144      2.88644307883952                     5      49.2814700425793
21046144      2.88644307883952                     5      1.74147004257932
21046144      5.02790607883952                     5      35.7514700425793
21046144      5.02790607883952                     5      38.2114700425793
21046144      5.02790607883952                     5      40.6714700425793
21046144      5.02790607883952                     5      43.1314700425793
21046144      5.02790607883952                     5      45.5914700425793
21046144      5.02790607883952                     5      48.0514700425793
21046144      5.02790607883952                     5      0.51147004257932
21046144      4.31419907883952                     5      36.9814700425793
21046144      4.31419907883952                     5      39.4414700425793
21046144      4.31419907883952                     5      41.9014700425793
21046144      4.31419907883952                     5      44.3614700425793
21046144      4.31419907883952                     5      46.8214700425793
21046144      4.31419907883952                     5      49.2814700425793
21046144      4.31419907883952                     5      1.74147004257932
21046144      6.45566207883952                     5      35.7514700425793
21046144      6.45566207883952                     5      38.2114700425793
21046144      6.45566207883952                     5      40.6714700425793
21046144      6.45566207883952                     5      43.1314700425793
21046144      6.45566207883952                     5      45.5914700425793
21046144      6.45566207883952                     5      48.0514700425793
21046144      6.45566207883952                     5      0.51147004257932
21046144      7.16936807883952                     5      36.9814700425793
21046144      7.16936807883952                     5      39.4414700425793
21046144      7.16936807883952                     5      41.9014700425793
21046144      7.16936807883952                     5      44.3614700425793
21046144      7.16936807883952                     5      46.8214700425793
21046144      7.16936807883952                     5      49.2814700425793
21046144      7.16936807883952                     5      1.74147004257932
21046144      9.31083107883952                     5      35.7514700425793
21046144      9.31083107883952                     5      38.2114700425793
21046144      9.31083107883952                     5      40.6714700425793
21046144      9.31083107883952                     5      43.1314700425793
21046144      9.31083107883952                     5      45.5914700425793
21046144      9.31083107883952                     5      48.0514700425793
21046144      9.31083107883952                     5      0.51147004257932
21046144      8.59712407883952                     5      36.9814700425793
21046144      8.59712407883952                     5      39.4414700425793
21046144      8.59712407883952                     5      41.9014700425793
21046144      8.59712407883952                     5      44.3614700425793
21046144      8.59712407883952                     5      46.8214700425793
21046144      8.59712407883952                     5      49.2814700425793
21046144      8.59712407883952                     5      1.74147004257932
21046144      10.7385870788395                     5      35.7514700425793
21046144      10.7385870788395                     5      38.2114700425793
21046144      10.7385870788395                     5      40.6714700425793
21046144      10.7385870788395                     5      43.1314700425793
21046144      10.7385870788395                     5      45.5914700425793
21046144      10.7385870788395                     5      48.0514700425793
21046144      10.7385870788395                     5      0.51147004257932
21046144      11.4522930788395                     5      36.9814700425793
21046144      11.4522930788395                     5      39.4414700425793
21046144      11.4522930788395                     5      41.9014700425793
21046144      11.4522930788395                     5      44.3614700425793
21046144      11.4522930788395                     5      46.8214700425793
21046144      11.4522930788395                     5      49.2814700425793
21046144      11.4522930788395                     5      1.74147004257932
21046144      13.5937560788395                     5      35.7514700425793
21046144      13.5937560788395                     5      38.2114700425793
21046144      13.5937560788395                     5      40.6714700425793
21046144      13.5937560788395                     5      43.1314700425793
21046144      13.5937560788395                     5      45.5914700425793
21046144      13.5937560788395                     5      48.0514700425793
21046144      13.5937560788395                     5      0.51147004257932
21046144      12.8800490788395                     5      36.9814700425793