search structure

300 atoms
2  atom types

0   17.131700 xlo xhi
0   10.000000 ylo yhi
0   50.000000 zlo zhi

Atoms

1 2 15.735206 5.000000 36.981482
2 2 15.735206 5.000000 39.441482
3 2 15.735206 5.000000 41.901482
4 2 15.735206 5.000000 44.361482
5 2 15.735206 5.000000 46.821482
6 2 15.735206 5.000000 49.281482
7 2 15.735206 5.000000 51.741482
8 2 0.744969 5.000000 35.751482
9 2 0.744969 5.000000 38.211482
10 2 0.744969 5.000000 40.671482
11 2 0.744969 5.000000 43.131482
12 2 0.744969 5.000000 45.591482
13 2 0.744969 5.000000 48.051482
14 2 0.744969 5.000000 50.511482
15 2 0.031262 5.000000 36.981482
16 2 0.031262 5.000000 39.441482
17 2 0.031262 5.000000 41.901482
18 2 0.031262 5.000000 44.361482
19 2 0.031262 5.000000 46.821482
20 2 0.031262 5.000000 49.281482
21 2 0.031262 5.000000 51.741482
22 2 2.172725 5.000000 35.751482
23 2 2.172725 5.000000 38.211482
24 2 2.172725 5.000000 40.671482
25 2 2.172725 5.000000 43.131482
26 2 2.172725 5.000000 45.591482
27 2 2.172725 5.000000 48.051482
28 2 2.172725 5.000000 50.511482
29 2 2.886431 5.000000 36.981482
30 2 2.886431 5.000000 39.441482
31 1 2.886431 5.000000 41.901482
32 1 2.886431 5.000000 44.361482
33 1 2.886431 5.000000 46.821482
34 1 2.886431 5.000000 49.281482
35 1 2.886431 5.000000 51.741482
36 1 5.027894 5.000000 35.751482
37 1 5.027894 5.000000 38.211482
38 1 5.027894 5.000000 40.671482
39 1 5.027894 5.000000 43.131482
40 1 5.027894 5.000000 45.591482
41 1 5.027894 5.000000 48.051482
42 1 5.027894 5.000000 50.511482
43 1 4.314187 5.000000 36.981482
44 1 4.314187 5.000000 39.441482
45 1 4.314187 5.000000 41.901482
46 1 4.314187 5.000000 44.361482
47 1 4.314187 5.000000 46.821482
48 1 4.314187 5.000000 49.281482
49 1 4.314187 5.000000 51.741482
50 1 6.455650 5.000000 35.751482
51 1 6.455650 5.000000 38.211482
52 1 6.455650 5.000000 40.671482
53 1 6.455650 5.000000 43.131482
54 1 6.455650 5.000000 45.591482
55 1 6.455650 5.000000 48.051482
56 1 6.455650 5.000000 50.511482
57 1 7.169356 5.000000 36.981482
58 1 7.169356 5.000000 39.441482
59 1 7.169356 5.000000 41.901482
60 1 7.169356 5.000000 44.361482
61 1 7.169356 5.000000 46.821482
62 1 7.169356 5.000000 49.281482
63 1 7.169356 5.000000 51.741482
64 1 9.310819 5.000000 35.751482
65 1 9.310819 5.000000 38.211482
66 1 9.310819 5.000000 40.671482
67 1 9.310819 5.000000 43.131482
68 1 9.310819 5.000000 45.591482
69 1 9.310819 5.000000 48.051482
70 1 9.310819 5.000000 50.511482
71 1 8.597112 5.000000 36.981482
72 1 8.597112 5.000000 39.441482
73 1 8.597112 5.000000 41.901482
74 1 8.597112 5.000000 44.361482
75 1 8.597112 5.000000 46.821482
76 1 8.597112 5.000000 49.281482
77 1 8.597112 5.000000 51.741482
78 1 10.738575 5.000000 35.751482
79 1 10.738575 5.000000 38.211482
80 1 10.738575 5.000000 40.671482
81 1 10.738575 5.000000 43.131482
82 1 10.738575 5.000000 45.591482
83 1 10.738575 5.000000 48.051482
84 1 10.738575 5.000000 50.511482
85 1 11.452281 5.000000 36.981482
86 1 11.452281 5.000000 39.441482
87 1 11.452281 5.000000 41.901482
88 1 11.452281 5.000000 44.361482
89 1 11.452281 5.000000 46.821482
90 1 11.452281 5.000000 49.281482
91 1 11.452281 5.000000 51.741482
92 1 13.593744 5.000000 35.751482
93 1 13.593744 5.000000 38.211482
94 1 13.593744 5.000000 40.671482
95 1 13.593744 5.000000 43.131482
96 1 13.593744 5.000000 45.591482
97 1 13.593744 5.000000 48.051482
98 1 13.593744 5.000000 50.511482
99 1 12.880037 5.000000 36.981482
100 1 12.880037 5.000000 39.441482
101 1 12.880037 5.000000 41.901482
102 1 12.880037 5.000000 44.361482
103 1 12.880037 5.000000 46.821482
104 1 12.880037 5.000000 49.281482
105 1 12.880037 5.000000 51.741482
106 1 15.021500 5.000000 35.751482
107 1 15.021500 5.000000 38.211482
108 1 15.021500 5.000000 40.671482
109 1 15.021500 5.000000 43.131482
110 1 15.021500 5.000000 45.591482
111 1 15.021500 5.000000 48.051482
112 1 15.021500 5.000000 50.511482
113 2 15.165063 5.000000 52.728982
114 2 0.601234 5.000000 52.728982
115 2 2.318515 5.000000 52.729982
116 2 4.884159 5.000000 52.728982
117 2 6.601440 5.000000 52.729982
118 2 9.167084 5.000000 52.728982
119 2 10.884365 5.000000 52.729982
120 2 13.450009 5.000000 52.728982
121 1 -0.039917 5.000000 8.565500
122 1 -0.039917 5.000000 12.826500
123 1 -0.039917 5.000000 17.087500
124 1 -0.039917 5.000000 21.348000
125 1 -0.039917 5.000000 9.986000
126 1 -0.039917 5.000000 14.246500
127 1 -0.039917 5.000000 18.507500
128 1 -0.039917 5.000000 22.768500
129 1 15.868066 5.000000 10.696000
130 1 15.868066 5.000000 14.957000
131 1 15.868066 5.000000 19.217500
132 1 15.868066 5.000000 23.478500
133 1 15.868066 5.000000 7.855500
134 1 15.868066 5.000000 12.116500
135 1 15.868066 5.000000 16.377000
136 1 15.868066 5.000000 20.638000
137 1 14.644348 5.000000 8.565500
138 1 14.644348 5.000000 12.826500
139 1 14.644348 5.000000 17.087500
140 1 14.644348 5.000000 21.348000
141 1 13.420631 5.000000 10.696000
142 1 13.420631 5.000000 14.957000
143 1 13.420631 5.000000 19.217500
144 1 13.420631 5.000000 23.478500
145 1 14.644348 5.000000 9.986000
146 1 14.644348 5.000000 14.246500
147 1 14.644348 5.000000 18.507500
148 1 14.644348 5.000000 22.768500
149 1 13.420631 5.000000 7.855500
150 1 13.420631 5.000000 12.116500
151 1 13.420631 5.000000 16.377000
152 1 13.420631 5.000000 20.638000
153 1 12.197085 5.000000 8.565500
154 1 12.197085 5.000000 12.826500
155 1 12.197085 5.000000 17.087500
156 1 12.197085 5.000000 21.348000
157 1 10.973368 5.000000 10.696000
158 1 10.973368 5.000000 14.957000
159 1 10.973368 5.000000 19.217500
160 1 10.973368 5.000000 23.478500
161 1 12.197085 5.000000 9.986000
162 1 12.197085 5.000000 14.246500
163 1 12.197085 5.000000 18.507500
164 1 12.197085 5.000000 22.768500
165 1 10.973368 5.000000 7.855500
166 1 10.973368 5.000000 12.116500
167 1 10.973368 5.000000 16.377000
168 1 10.973368 5.000000 20.638000
169 1 9.749650 5.000000 8.565500
170 1 9.749650 5.000000 12.826500
171 1 9.749650 5.000000 17.087500
172 1 9.749650 5.000000 21.348000
173 1 8.525933 5.000000 10.696000
174 1 8.525933 5.000000 14.957000
175 1 8.525933 5.000000 19.217500
176 1 8.525933 5.000000 23.478500
177 1 9.749650 5.000000 9.986000
178 1 9.749650 5.000000 14.246500
179 1 9.749650 5.000000 18.507500
180 1 9.749650 5.000000 22.768500
181 1 8.525933 5.000000 7.855500
182 1 8.525933 5.000000 12.116500
183 1 8.525933 5.000000 16.377000
184 1 8.525933 5.000000 20.638000
185 1 7.302216 5.000000 8.565500
186 1 7.302216 5.000000 12.826500
187 1 7.302216 5.000000 17.087500
188 1 7.302216 5.000000 21.348000
189 1 6.078498 5.000000 10.696000
190 1 6.078498 5.000000 14.957000
191 1 6.078498 5.000000 19.217500
192 1 6.078498 5.000000 23.478500
193 1 7.302216 5.000000 9.986000
194 1 7.302216 5.000000 14.246500
195 1 7.302216 5.000000 18.507500
196 1 7.302216 5.000000 22.768500
197 1 6.078498 5.000000 7.855500
198 1 6.078498 5.000000 12.116500
199 1 6.078498 5.000000 16.377000
200 1 6.078498 5.000000 20.638000
201 1 4.854781 5.000000 8.565500
202 1 4.854781 5.000000 12.826500
203 1 4.854781 5.000000 17.087500
204 1 4.854781 5.000000 21.348000
205 1 3.631235 5.000000 10.696000
206 1 3.631235 5.000000 14.957000
207 1 3.631235 5.000000 19.217500
208 1 3.631235 5.000000 23.478500
209 1 4.854781 5.000000 9.986000
210 1 4.854781 5.000000 14.246500
211 1 4.854781 5.000000 18.507500
212 1 4.854781 5.000000 22.768500
213 1 3.631235 5.000000 7.855500
214 1 3.631235 5.000000 12.116500
215 1 3.631235 5.000000 16.377000
216 1 3.631235 5.000000 20.638000
217 1 2.407518 5.000000 8.565500
218 1 2.407518 5.000000 12.826500
219 1 2.407518 5.000000 17.087500
220 1 2.407518 5.000000 21.348000
221 1 1.183800 5.000000 10.696000
222 1 1.183800 5.000000 14.957000
223 1 1.183800 5.000000 19.217500
224 1 1.183800 5.000000 23.478500
225 1 2.407518 5.000000 9.986000
226 1 2.407518 5.000000 14.246500
227 1 2.407518 5.000000 18.507500
228 1 2.407518 5.000000 22.768500
229 1 1.183800 5.000000 7.855500
230 1 1.183800 5.000000 12.116500
231 1 1.183800 5.000000 16.377000
232 1 1.183800 5.000000 20.638000
233 2 15.865667 5.000000 6.715500
234 2 13.423030 5.000000 6.715500
235 2 10.975766 5.000000 6.715500
236 2 8.528332 5.000000 6.715500
237 2 6.080897 5.000000 6.715500
238 2 3.633634 5.000000 6.715500
239 2 1.181402 5.000000 6.715500
240 2 6.694075 2.150993 27.811545
241 2 3.481114 4.755570 29.867830
242 2 12.459195 7.405193 35.409786
243 2 13.487618 2.071484 34.895717
244 2 10.150605 3.669366 29.533594
245 2 8.232950 4.799197 33.655207
246 2 5.486666 4.421908 28.209525
247 2 0.066746 6.615693 24.954324
248 2 15.223152 5.563470 28.630354
249 2 10.356240 3.111055 24.112881
250 2 6.996834 9.111662 30.841740
251 2 7.172382 8.805448 25.305518
252 2 3.502836 6.878196 30.916504
253 2 3.006502 2.906947 31.549582
254 2 3.436452 0.542628 34.563075
255 2 13.558144 2.124774 33.536445
256 2 9.379906 2.236546 23.872830
257 2 13.852958 0.829787 34.698563
258 2 8.194918 9.061359 26.800460
259 2 6.853763 6.302142 27.147817
260 2 3.737783 7.444290 32.127521
261 2 5.771640 4.372395 28.032697
262 2 4.323107 3.806866 26.897540
263 2 1.040788 0.840533 29.000016
264 2 11.356405 1.217207 34.156286
265 2 4.075309 7.904071 28.268153
266 2 0.725737 2.209687 33.606386
267 2 10.610694 3.022252 34.564370
268 1 1.382723 1.034150 30.651225
269 1 6.281685 3.171333 32.730313
270 1 14.235309 9.185515 32.871069
271 1 14.769041 5.031980 23.730240
272 1 9.004100 6.911274 23.946350
273 1 12.880937 9.288350 32.741487
274 1 8.241452 1.182304 26.178849
275 1 12.040502 5.092928 31.192693
276 1 7.782985 0.145202 31.340168
277 1 9.903838 8.407219 31.866412
278 1 12.134950 9.678607 34.937992
279 1 2.884923 2.190027 33.835992
280 1 16.853644 2.586831 34.964734
281 1 3.257395 7.418763 24.152097
282 1 2.683470 3.298366 32.912580
283 1 7.101498 5.208534 24.637584
284 1 1.750959 4.376490 30.159912
285 1 3.470541 5.879815 24.201488
286 1 6.878764 5.907153 32.972985
287 1 4.561382 0.450042 27.065695
288 1 7.312383 3.436126 31.164442
289 1 14.931525 8.462712 30.869047
290 1 11.467740 6.335616 34.306898
291 1 9.833568 8.842955 34.307725
292 1 13.103336 5.879179 26.649871
293 1 9.869068 4.873761 30.813252
294 1 6.005571 5.805060 30.713649
295 1 16.075249 8.408167 26.068722
296 1 6.498858 6.613198 24.799674
297 1 16.662593 6.022782 28.658333
298 1 17.011095 3.211701 32.121629
299 1 10.956397 9.682591 33.501086
300 1 11.001705 2.956510 23.689901
