300
Atoms. Timestep: 0
342741920              1.909759                     5             35.428788
342741920              1.909759                     5             37.888788
342741920              1.909759                     5             40.348788
342741920              1.909759                     5             42.808788
342741920              1.909759                     5             45.268788
342741920              1.909759                     5             47.728788
342741920              1.909759                     5     0.188788000000002
342741920              4.051221                     5             34.198788
342741920              4.051221                     5             36.658788
342741920              4.051221                     5             39.118788
342741920              4.051221                     5             41.578788
342741920              4.051221                     5             44.038788
342741920              4.051221                     5             46.498788
342741920              4.051221                     5             48.958788
342741920              3.337515                     5             35.428788
342741920              3.337515                     5             37.888788
342741920              3.337515                     5             40.348788
342741920              3.337515                     5             42.808788
342741920              3.337515                     5             45.268788
342741920              3.337515                     5             47.728788
342741920              3.337515                     5     0.188788000000002
342741920              5.478977                     5             34.198788
342741920              5.478977                     5             36.658788
342741920              5.478977                     5             39.118788
342741920              5.478977                     5             41.578788
342741920              5.478977                     5             44.038788
342741920              5.478977                     5             46.498788
342741920              5.478977                     5             48.958788
342741920              6.192684                     5             35.428788
342741920              6.192684                     5             37.888788
342741888              6.192684                     5             40.348788
342741888              6.192684                     5             42.808788
342741888              6.192684                     5             45.268788
342741888              6.192684                     5             47.728788
342741888              6.192684                     5     0.188788000000002
342741888              8.334146                     5             34.198788
342741888              8.334146                     5             36.658788
342741888              8.334146                     5             39.118788
342741888              8.334146                     5             41.578788
342741888              8.334146                     5             44.038788
342741888              8.334146                     5             46.498788
342741888              8.334146                     5             48.958788
342741888               7.62044                     5             35.428788
342741888               7.62044                     5             37.888788
342741888               7.62044                     5             40.348788
342741888               7.62044                     5             42.808788
342741888               7.62044                     5             45.268788
342741888               7.62044                     5             47.728788
342741888               7.62044                     5     0.188788000000002
342741888              9.761902                     5             34.198788
342741888              9.761902                     5             36.658788
342741888              9.761902                     5             39.118788
342741888              9.761902                     5             41.578788
342741888              9.761902                     5             44.038788
342741888              9.761902                     5             46.498788
342741888              9.761902                     5             48.958788
342741888             10.475609                     5             35.428788
342741888             10.475609                     5             37.888788
342741888             10.475609                     5             40.348788
342741888             10.475609                     5             42.808788
342741888             10.475609                     5             45.268788
342741888             10.475609                     5             47.728788
342741888             10.475609                     5     0.188788000000002
342741888             12.617071                     5             34.198788
342741888             12.617071                     5             36.658788
342741888             12.617071                     5             39.118788
342741888             12.617071                     5             41.578788
342741888             12.617071                     5             44.038788
342741888             12.617071                     5             46.498788
342741888             12.617071                     5             48.958788
342741888             11.903365                     5             35.428788
342741888             11.903365                     5             37.888788
342741888             11.903365                     5             40.348788
342741888             11.903365                     5             42.808788
342741888             11.903365                     5             45.268788
342741888             11.903365                     5             47.728788
342741888             11.903365                     5     0.188788000000002
342741888             14.044827                     5             34.198788
342741888             14.044827                     5             36.658788
342741888             14.044827                     5             39.118788
342741888             14.044827                     5             41.578788
342741888             14.044827                     5             44.038788
342741888             14.044827                     5             46.498788
342741888             14.044827                     5             48.958788
342741888             14.758534                     5             35.428788
342741888             14.758534                     5             37.888788
342741888             14.758534                     5             40.348788
342741888             14.758534                     5             42.808788
342741888             14.758534                     5             45.268788
342741888             14.758534                     5             47.728788
342741888             14.758534                     5     0.188788000000002
342741888             16.899996                     5             34.198788
342741888             16.899996                     5             36.658788
342741888             16.899996                     5             39.118788
342741888             16.899996                     5             41.578788
342741888             16.899996                     5             44.038788
342741888             16.899996                     5             46.498788
342741888             16.899996                     5             48.958788
342741888              16.18629                     5             35.428788
342741888              16.18629                     5             37.888788
342741888              16.18629                     5             40.348788
342741888              16.18629                     5             42.808788
342741888              16.18629                     5             45.268788
342741888              16.18629                     5             47.728788
342741888              16.18629                     5     0.188788000000002
342741888              1.196052                     5             34.198788
342741888              1.196052                     5             36.658788
342741888              1.196052                     5             39.118788
342741888              1.196052                     5             41.578788
342741888              1.196052                     5             44.038788
342741888              1.196052                     5             46.498788
342741888              1.196052                     5             48.958788
342741920              1.339616                     5              1.176288
342741920              3.907486                     5              1.176288
342741920              5.624768                     5              1.177288
342741920              8.190411                     5              1.176288
342741920              9.907693                     5              1.177288
342741920             12.473336                     5              1.176288
342741920             14.190618                     5              1.177288
342741920             16.756261                     5              1.176288
342741888             17.091783                     5                8.5655
342741888             17.091783                     5               12.8265
342741888             17.091783                     5               17.0875
342741888             17.091783                     5                21.348
342741888             17.091783                     5                 9.986
342741888             17.091783                     5               14.2465
342741888             17.091783                     5               18.5075
342741888             17.091783                     5               22.7685
342741888             15.868066                     5                10.696
342741888             15.868066                     5                14.957
342741888             15.868066                     5               19.2175
342741888             15.868066                     5               23.4785
342741888             15.868066                     5                7.8555
342741888             15.868066                     5               12.1165
342741888             15.868066                     5                16.377
342741888             15.868066                     5                20.638
342741888             14.644348                     5                8.5655
342741888             14.644348                     5               12.8265
342741888             14.644348                     5               17.0875
342741888             14.644348                     5                21.348
342741888             13.420631                     5                10.696
342741888             13.420631                     5                14.957
342741888             13.420631                     5               19.2175
342741888             13.420631                     5               23.4785
342741888             14.644348                     5                 9.986
342741888             14.644348                     5               14.2465
342741888             14.644348                     5               18.5075
342741888             14.644348                     5               22.7685
342741888             13.420631                     5                7.8555
342741888             13.420631                     5               12.1165
342741888             13.420631                     5                16.377
342741888             13.420631                     5                20.638
342741888             12.197085                     5                8.5655
342741888             12.197085                     5               12.8265
342741888             12.197085                     5               17.0875
342741888             12.197085                     5                21.348
342741888             10.973368                     5                10.696
342741888             10.973368                     5                14.957
342741888             10.973368                     5               19.2175
342741888             10.973368                     5               23.4785
342741888             12.197085                     5                 9.986
342741888             12.197085                     5               14.2465
342741888             12.197085                     5               18.5075
342741888             12.197085                     5               22.7685
342741888             10.973368                     5                7.8555
342741888             10.973368                     5               12.1165
342741888             10.973368                     5                16.377
342741888             10.973368                     5                20.638
342741888               9.74965                     5                8.5655
342741888               9.74965                     5               12.8265
342741888               9.74965                     5               17.0875
342741888               9.74965                     5                21.348
342741888              8.525933                     5                10.696
342741888              8.525933                     5                14.957
342741888              8.525933                     5               19.2175
342741888              8.525933                     5               23.4785
342741888               9.74965                     5                 9.986
342741888               9.74965                     5               14.2465
342741888               9.74965                     5               18.5075
342741888               9.74965                     5               22.7685
342741888              8.525933                     5                7.8555
342741888              8.525933                     5               12.1165
342741888              8.525933                     5                16.377
342741888              8.525933                     5                20.638
342741888              7.302216                     5                8.5655
342741888              7.302216                     5               12.8265
342741888              7.302216                     5               17.0875
342741888              7.302216                     5                21.348
342741888              6.078498                     5                10.696
342741888              6.078498                     5                14.957
342741888              6.078498                     5               19.2175
342741888              6.078498                     5               23.4785
342741888              7.302216                     5                 9.986
342741888              7.302216                     5               14.2465
342741888              7.302216                     5               18.5075
342741888              7.302216                     5               22.7685
342741888              6.078498                     5                7.8555
342741888              6.078498                     5               12.1165
342741888              6.078498                     5                16.377
342741888              6.078498                     5                20.638
342741888              4.854781                     5                8.5655
342741888              4.854781                     5               12.8265
342741888              4.854781                     5               17.0875
342741888              4.854781                     5                21.348
342741888              3.631235                     5                10.696
342741888              3.631235                     5                14.957
342741888              3.631235                     5               19.2175
342741888              3.631235                     5               23.4785
342741888              4.854781                     5                 9.986
342741888              4.854781                     5               14.2465
342741888              4.854781                     5               18.5075
342741888              4.854781                     5               22.7685
342741888              3.631235                     5                7.8555
342741888              3.631235                     5               12.1165
342741888              3.631235                     5                16.377
342741888              3.631235                     5                20.638
342741888              2.407518                     5                8.5655
342741888              2.407518                     5               12.8265
342741888              2.407518                     5               17.0875
342741888              2.407518                     5                21.348
342741888                1.1838                     5                10.696
342741888                1.1838                     5                14.957
342741888                1.1838                     5               19.2175
342741888                1.1838                     5               23.4785
342741888              2.407518                     5                 9.986
342741888              2.407518                     5               14.2465
342741888              2.407518                     5               18.5075
342741888              2.407518                     5               22.7685
342741888                1.1838                     5                7.8555
342741888                1.1838                     5               12.1165
342741888                1.1838                     5                16.377
342741888                1.1838                     5                20.638
342741920             15.865667                     5                6.7155
342741920              13.42303                     5                6.7155
342741920             10.975766                     5                6.7155
342741920              8.528332                     5                6.7155
342741920              6.080897                     5                6.7155
342741920              3.633634                     5                6.7155
342741920              1.181402                     5                6.7155
342741920              7.837521              2.558289             26.454735
342741920              1.145893              4.810102             25.498182
342741920             15.389529              3.300567             27.896518
342741920               8.49245              2.262281             24.222199
342741920             10.090225              2.011869             27.871495
342741920             17.063303              1.504574             25.838392
342741920             16.612128              3.556251             27.548084
342741920             14.708744              6.313998                  23.5
342741920               2.04415               6.95552             26.109726
342741920              7.216429              3.609703             29.971686
342741920               6.06873               8.82531             32.650331
342741920             12.526724              1.248518             27.442129
342741920             16.590715              8.507315             27.622411
342741920              2.768555              3.002591             29.247173
342741920              3.137152              6.461457             27.578717
342741920              5.481419              6.615391             33.988953
342741920             14.619912               2.78414             30.577082
342741920             15.613959              1.913178             27.780824
342741920              4.324274               0.00643             33.953809
342741920              4.323727              2.804063             31.110907
342741920              3.186791              4.524711             32.263342
342741920              6.438384              0.126728             34.122288
342741920             10.615271              5.648612             30.224021
342741920              5.993025              7.990203             32.314024
342741920              8.327499               0.50132             34.122288
342741920              3.820074              4.080131             31.413748
342741920             15.003405              3.834012             28.540916
342741920             13.843142              4.581055             33.574312
342741888              12.13827              0.053926             25.366088
342741888               7.66796              9.960824             25.539528
342741888             10.581316              2.853862             25.975713
342741888             16.415608               4.94776             26.149221
342741888             16.873607              7.527784             27.080912
342741888              7.295269              0.947338             26.329534
342741888             15.044768              8.661052             23.953137
342741888              9.359801              1.017382                  23.5
342741888              6.813791              7.557676             25.969698
342741888             16.012419               9.21222                  23.5
342741888              8.763718               9.26976             25.167056
342741888              9.294941              5.044778             28.783184
342741888              4.633701              3.975727              27.11228
342741888             12.953424              4.537315             25.736823
342741888              7.872531              9.457216             29.773612
342741888              7.866557              0.590273             29.665715
342741888               7.07196              6.405062             26.293964
342741888              8.717042              9.382387             27.800493
342741888                 4.401               7.45114             26.222191
342741888              8.663937              8.395496             31.458854
342741888              8.146588               9.86126             29.626995
342741888             13.163925              8.223262             28.865427
342741888              5.915708              0.166157             30.360705
342741888              6.845343              7.509431             33.051092
342741888             10.694318              4.271259             34.079528
342741888              0.740638              4.840795             31.535734
342741888              0.552699              7.851418              29.59652
342741888             14.969738              0.147207             34.122288
342741888             16.444295              0.974005             34.122288
342741888             14.024512              2.295017             32.690381
342741888             11.346447              5.607853             29.571912
342741888              2.949403              9.752849             29.030183
342741888              1.867108              7.535726             30.980649
300
Atoms. Timestep: 10
342741920      1.90479418187473                     5      35.4353145624619
342741920      1.90479418187473                     5      37.8953145624619
342741920      1.90479418187473                     5      40.3553145624619
342741920      1.90479418187473                     5      42.8153145624619
342741920      1.90479418187473                     5      45.2753145624619
342741920      1.90479418187473                     5      47.7353145624619
342741920      1.90479418187473                     5     0.195314562461862
342741920      4.04625618187473                     5      34.2053145624619
342741920      4.04625618187473                     5      36.6653145624619
342741920      4.04625618187473                     5      39.1253145624619
342741920      4.04625618187473                     5      41.5853145624619
342741920      4.04625618187473                     5      44.0453145624619
342741920      4.04625618187473                     5      46.5053145624619
342741920      4.04625618187473                     5      48.9653145624619
342741920      3.33255018187474                     5      35.4353145624619
342741920      3.33255018187474                     5      37.8953145624619
342741920      3.33255018187474                     5      40.3553145624619
342741920      3.33255018187474                     5      42.8153145624619
342741920      3.33255018187474                     5      45.2753145624619
342741920      3.33255018187474                     5      47.7353145624619
342741920      3.33255018187474                     5     0.195314562461862
342741920      5.47401218187473                     5      34.2053145624619
342741920      5.47401218187473                     5      36.6653145624619
342741920      5.47401218187473                     5      39.1253145624619
342741920      5.47401218187473                     5      41.5853145624619
342741920      5.47401218187473                     5      44.0453145624619
342741920      5.47401218187473                     5      46.5053145624619
342741920      5.47401218187473                     5      48.9653145624619
342741920      6.18771918187473                     5      35.4353145624619
342741920      6.18771918187473                     5      37.8953145624619
342741888      6.18771918187473                     5      40.3553145624619
342741888      6.18771918187473                     5      42.8153145624619
342741888      6.18771918187473                     5      45.2753145624619
342741888      6.18771918187473                     5      47.7353145624619
342741888      6.18771918187473                     5     0.195314562461862
342741888      8.32918118187474                     5      34.2053145624619
342741888      8.32918118187474                     5      36.6653145624619
342741888      8.32918118187474                     5      39.1253145624619
342741888      8.32918118187474                     5      41.5853145624619
342741888      8.32918118187474                     5      44.0453145624619
342741888      8.32918118187474                     5      46.5053145624619
342741888      8.32918118187474                     5      48.9653145624619
342741888      7.61547518187473                     5      35.4353145624619
342741888      7.61547518187473                     5      37.8953145624619
342741888      7.61547518187473                     5      40.3553145624619
342741888      7.61547518187473                     5      42.8153145624619
342741888      7.61547518187473                     5      45.2753145624619
342741888      7.61547518187473                     5      47.7353145624619
342741888      7.61547518187473                     5     0.195314562461862
342741888      9.75693718187473                     5      34.2053145624619
342741888      9.75693718187473                     5      36.6653145624619
342741888      9.75693718187473                     5      39.1253145624619
342741888      9.75693718187473                     5      41.5853145624619
342741888      9.75693718187473                     5      44.0453145624619
342741888      9.75693718187473                     5      46.5053145624619
342741888      9.75693718187473                     5      48.9653145624619
342741888      10.4706441818747                     5      35.4353145624619
342741888      10.4706441818747                     5      37.8953145624619
342741888      10.4706441818747                     5      40.3553145624619
342741888      10.4706441818747                     5      42.8153145624619
342741888      10.4706441818747                     5      45.2753145624619
342741888      10.4706441818747                     5      47.7353145624619
342741888      10.4706441818747                     5     0.195314562461862
342741888      12.6121061818747                     5      34.2053145624619
342741888      12.6121061818747                     5      36.6653145624619
342741888      12.6121061818747                     5      39.1253145624619
342741888      12.6121061818747                     5      41.5853145624619
342741888      12.6121061818747                     5      44.0453145624619
342741888      12.6121061818747                     5      46.5053145624619
342741888      12.6121061818747                     5      48.9653145624619
342741888      11.8984001818747                     5      35.4353145624619
342741888      11.8984001818747                     5      37.8953145624619
342741888      11.8984001818747                     5      40.3553145624619
342741888      11.8984001818747                     5      42.8153145624619
342741888      11.8984001818747                     5      45.2753145624619
342741888      11.8984001818747                     5      47.7353145624619
342741888      11.8984001818747                     5     0.195314562461862
342741888      14.0398621818747                     5      34.2053145624619
342741888      14.0398621818747                     5      36.6653145624619
342741888      14.0398621818747                     5      39.1253145624619
342741888      14.0398621818747                     5      41.5853145624619
342741888      14.0398621818747                     5      44.0453145624619
342741888      14.0398621818747                     5      46.5053145624619
342741888      14.0398621818747                     5      48.9653145624619
342741888      14.7535691818747                     5      35.4353145624619
342741888      14.7535691818747                     5      37.8953145624619
342741888      14.7535691818747                     5      40.3553145624619
342741888      14.7535691818747                     5      42.8153145624619
342741888      14.7535691818747                     5      45.2753145624619
342741888      14.7535691818747                     5      47.7353145624619
342741888      14.7535691818747                     5     0.195314562461862
342741888      16.8950311818747                     5      34.2053145624619
342741888      16.8950311818747                     5      36.6653145624619
342741888      16.8950311818747                     5      39.1253145624619