search structure

300 atoms
2  atom types

0   17.131700 xlo xhi
0   10.000000 ylo yhi
0   50.000000 zlo zhi

Atoms

1 2 1.909759 5.000000 35.428788
2 2 1.909759 5.000000 37.888788
3 2 1.909759 5.000000 40.348788
4 2 1.909759 5.000000 42.808788
5 2 1.909759 5.000000 45.268788
6 2 1.909759 5.000000 47.728788
7 2 1.909759 5.000000 50.188788
8 2 4.051221 5.000000 34.198788
9 2 4.051221 5.000000 36.658788
10 2 4.051221 5.000000 39.118788
11 2 4.051221 5.000000 41.578788
12 2 4.051221 5.000000 44.038788
13 2 4.051221 5.000000 46.498788
14 2 4.051221 5.000000 48.958788
15 2 3.337515 5.000000 35.428788
16 2 3.337515 5.000000 37.888788
17 2 3.337515 5.000000 40.348788
18 2 3.337515 5.000000 42.808788
19 2 3.337515 5.000000 45.268788
20 2 3.337515 5.000000 47.728788
21 2 3.337515 5.000000 50.188788
22 2 5.478977 5.000000 34.198788
23 2 5.478977 5.000000 36.658788
24 2 5.478977 5.000000 39.118788
25 2 5.478977 5.000000 41.578788
26 2 5.478977 5.000000 44.038788
27 2 5.478977 5.000000 46.498788
28 2 5.478977 5.000000 48.958788
29 2 6.192684 5.000000 35.428788
30 2 6.192684 5.000000 37.888788
31 1 6.192684 5.000000 40.348788
32 1 6.192684 5.000000 42.808788
33 1 6.192684 5.000000 45.268788
34 1 6.192684 5.000000 47.728788
35 1 6.192684 5.000000 50.188788
36 1 8.334146 5.000000 34.198788
37 1 8.334146 5.000000 36.658788
38 1 8.334146 5.000000 39.118788
39 1 8.334146 5.000000 41.578788
40 1 8.334146 5.000000 44.038788
41 1 8.334146 5.000000 46.498788
42 1 8.334146 5.000000 48.958788
43 1 7.620440 5.000000 35.428788
44 1 7.620440 5.000000 37.888788
45 1 7.620440 5.000000 40.348788
46 1 7.620440 5.000000 42.808788
47 1 7.620440 5.000000 45.268788
48 1 7.620440 5.000000 47.728788
49 1 7.620440 5.000000 50.188788
50 1 9.761902 5.000000 34.198788
51 1 9.761902 5.000000 36.658788
52 1 9.761902 5.000000 39.118788
53 1 9.761902 5.000000 41.578788
54 1 9.761902 5.000000 44.038788
55 1 9.761902 5.000000 46.498788
56 1 9.761902 5.000000 48.958788
57 1 10.475609 5.000000 35.428788
58 1 10.475609 5.000000 37.888788
59 1 10.475609 5.000000 40.348788
60 1 10.475609 5.000000 42.808788
61 1 10.475609 5.000000 45.268788
62 1 10.475609 5.000000 47.728788
63 1 10.475609 5.000000 50.188788
64 1 12.617071 5.000000 34.198788
65 1 12.617071 5.000000 36.658788
66 1 12.617071 5.000000 39.118788
67 1 12.617071 5.000000 41.578788
68 1 12.617071 5.000000 44.038788
69 1 12.617071 5.000000 46.498788
70 1 12.617071 5.000000 48.958788
71 1 11.903365 5.000000 35.428788
72 1 11.903365 5.000000 37.888788
73 1 11.903365 5.000000 40.348788
74 1 11.903365 5.000000 42.808788
75 1 11.903365 5.000000 45.268788
76 1 11.903365 5.000000 47.728788
77 1 11.903365 5.000000 50.188788
78 1 14.044827 5.000000 34.198788
79 1 14.044827 5.000000 36.658788
80 1 14.044827 5.000000 39.118788
81 1 14.044827 5.000000 41.578788
82 1 14.044827 5.000000 44.038788
83 1 14.044827 5.000000 46.498788
84 1 14.044827 5.000000 48.958788
85 1 14.758534 5.000000 35.428788
86 1 14.758534 5.000000 37.888788
87 1 14.758534 5.000000 40.348788
88 1 14.758534 5.000000 42.808788
89 1 14.758534 5.000000 45.268788
90 1 14.758534 5.000000 47.728788
91 1 14.758534 5.000000 50.188788
92 1 16.899996 5.000000 34.198788
93 1 16.899996 5.000000 36.658788
94 1 16.899996 5.000000 39.118788
95 1 16.899996 5.000000 41.578788
96 1 16.899996 5.000000 44.038788
97 1 16.899996 5.000000 46.498788
98 1 16.899996 5.000000 48.958788
99 1 16.186290 5.000000 35.428788
100 1 16.186290 5.000000 37.888788
101 1 16.186290 5.000000 40.348788
102 1 16.186290 5.000000 42.808788
103 1 16.186290 5.000000 45.268788
104 1 16.186290 5.000000 47.728788
105 1 16.186290 5.000000 50.188788
106 1 1.196052 5.000000 34.198788
107 1 1.196052 5.000000 36.658788
108 1 1.196052 5.000000 39.118788
109 1 1.196052 5.000000 41.578788
110 1 1.196052 5.000000 44.038788
111 1 1.196052 5.000000 46.498788
112 1 1.196052 5.000000 48.958788
113 2 1.339616 5.000000 51.176288
114 2 3.907486 5.000000 51.176288
115 2 5.624768 5.000000 51.177288
116 2 8.190411 5.000000 51.176288
117 2 9.907693 5.000000 51.177288
118 2 12.473336 5.000000 51.176288
119 2 14.190618 5.000000 51.177288
120 2 16.756261 5.000000 51.176288
121 1 -0.039917 5.000000 8.565500
122 1 -0.039917 5.000000 12.826500
123 1 -0.039917 5.000000 17.087500
124 1 -0.039917 5.000000 21.348000
125 1 -0.039917 5.000000 9.986000
126 1 -0.039917 5.000000 14.246500
127 1 -0.039917 5.000000 18.507500
128 1 -0.039917 5.000000 22.768500
129 1 15.868066 5.000000 10.696000
130 1 15.868066 5.000000 14.957000
131 1 15.868066 5.000000 19.217500
132 1 15.868066 5.000000 23.478500
133 1 15.868066 5.000000 7.855500
134 1 15.868066 5.000000 12.116500
135 1 15.868066 5.000000 16.377000
136 1 15.868066 5.000000 20.638000
137 1 14.644348 5.000000 8.565500
138 1 14.644348 5.000000 12.826500
139 1 14.644348 5.000000 17.087500
140 1 14.644348 5.000000 21.348000
141 1 13.420631 5.000000 10.696000
142 1 13.420631 5.000000 14.957000
143 1 13.420631 5.000000 19.217500
144 1 13.420631 5.000000 23.478500
145 1 14.644348 5.000000 9.986000
146 1 14.644348 5.000000 14.246500
147 1 14.644348 5.000000 18.507500
148 1 14.644348 5.000000 22.768500
149 1 13.420631 5.000000 7.855500
150 1 13.420631 5.000000 12.116500
151 1 13.420631 5.000000 16.377000
152 1 13.420631 5.000000 20.638000
153 1 12.197085 5.000000 8.565500
154 1 12.197085 5.000000 12.826500
155 1 12.197085 5.000000 17.087500
156 1 12.197085 5.000000 21.348000
157 1 10.973368 5.000000 10.696000
158 1 10.973368 5.000000 14.957000
159 1 10.973368 5.000000 19.217500
160 1 10.973368 5.000000 23.478500
161 1 12.197085 5.000000 9.986000
162 1 12.197085 5.000000 14.246500
163 1 12.197085 5.000000 18.507500
164 1 12.197085 5.000000 22.768500
165 1 10.973368 5.000000 7.855500
166 1 10.973368 5.000000 12.116500
167 1 10.973368 5.000000 16.377000
168 1 10.973368 5.000000 20.638000
169 1 9.749650 5.000000 8.565500
170 1 9.749650 5.000000 12.826500
171 1 9.749650 5.000000 17.087500
172 1 9.749650 5.000000 21.348000
173 1 8.525933 5.000000 10.696000
174 1 8.525933 5.000000 14.957000
175 1 8.525933 5.000000 19.217500
176 1 8.525933 5.000000 23.478500
177 1 9.749650 5.000000 9.986000
178 1 9.749650 5.000000 14.246500
179 1 9.749650 5.000000 18.507500
180 1 9.749650 5.000000 22.768500
181 1 8.525933 5.000000 7.855500
182 1 8.525933 5.000000 12.116500
183 1 8.525933 5.000000 16.377000
184 1 8.525933 5.000000 20.638000
185 1 7.302216 5.000000 8.565500
186 1 7.302216 5.000000 12.826500
187 1 7.302216 5.000000 17.087500
188 1 7.302216 5.000000 21.348000
189 1 6.078498 5.000000 10.696000
190 1 6.078498 5.000000 14.957000
191 1 6.078498 5.000000 19.217500
192 1 6.078498 5.000000 23.478500
193 1 7.302216 5.000000 9.986000
194 1 7.302216 5.000000 14.246500
195 1 7.302216 5.000000 18.507500
196 1 7.302216 5.000000 22.768500
197 1 6.078498 5.000000 7.855500
198 1 6.078498 5.000000 12.116500
199 1 6.078498 5.000000 16.377000
200 1 6.078498 5.000000 20.638000
201 1 4.854781 5.000000 8.565500
202 1 4.854781 5.000000 12.826500
203 1 4.854781 5.000000 17.087500
204 1 4.854781 5.000000 21.348000
205 1 3.631235 5.000000 10.696000
206 1 3.631235 5.000000 14.957000
207 1 3.631235 5.000000 19.217500
208 1 3.631235 5.000000 23.478500
209 1 4.854781 5.000000 9.986000
210 1 4.854781 5.000000 14.246500
211 1 4.854781 5.000000 18.507500
212 1 4.854781 5.000000 22.768500
213 1 3.631235 5.000000 7.855500
214 1 3.631235 5.000000 12.116500
215 1 3.631235 5.000000 16.377000
216 1 3.631235 5.000000 20.638000
217 1 2.407518 5.000000 8.565500
218 1 2.407518 5.000000 12.826500
219 1 2.407518 5.000000 17.087500
220 1 2.407518 5.000000 21.348000
221 1 1.183800 5.000000 10.696000
222 1 1.183800 5.000000 14.957000
223 1 1.183800 5.000000 19.217500
224 1 1.183800 5.000000 23.478500
225 1 2.407518 5.000000 9.986000
226 1 2.407518 5.000000 14.246500
227 1 2.407518 5.000000 18.507500
228 1 2.407518 5.000000 22.768500
229 1 1.183800 5.000000 7.855500
230 1 1.183800 5.000000 12.116500
231 1 1.183800 5.000000 16.377000
232 1 1.183800 5.000000 20.638000
233 2 15.865667 5.000000 6.715500
234 2 13.423030 5.000000 6.715500
235 2 10.975766 5.000000 6.715500
236 2 8.528332 5.000000 6.715500
237 2 6.080897 5.000000 6.715500
238 2 3.633634 5.000000 6.715500
239 2 1.181402 5.000000 6.715500
240 2 7.837521 2.558289 26.454735
241 2 1.145893 4.810102 25.498182
242 2 15.389529 3.300567 27.896518
243 2 8.492450 2.262281 24.222199
244 2 10.090225 2.011869 27.871495
245 2 17.063303 1.504574 25.838392
246 2 16.612128 3.556251 27.548084
247 2 14.708744 6.313998 23.500000
248 2 2.044150 6.955520 26.109726
249 2 7.216429 3.609703 29.971686
250 2 6.068730 8.825310 32.650331
251 2 12.526724 1.248518 27.442129
252 2 16.590715 8.507315 27.622411
253 2 2.768555 3.002591 29.247173
254 2 3.137152 6.461457 27.578717
255 2 5.481419 6.615391 33.988953
256 2 14.619912 2.784140 30.577082
257 2 15.613959 1.913178 27.780824
258 2 4.324274 0.006430 33.953809
259 2 4.323727 2.804063 31.110907
260 2 3.186791 4.524711 32.263342
261 2 6.438384 0.126728 34.122288
262 2 10.615271 5.648612 30.224021
263 2 5.993025 7.990203 32.314024
264 2 8.327499 0.501320 34.122288
265 2 3.820074 4.080131 31.413748
266 2 15.003405 3.834012 28.540916
267 2 13.843142 4.581055 33.574312
268 1 12.138270 0.053926 25.366088
269 1 7.667960 9.960824 25.539528
270 1 10.581316 2.853862 25.975713
271 1 16.415608 4.947760 26.149221
272 1 16.873607 7.527784 27.080912
273 1 7.295269 0.947338 26.329534
274 1 15.044768 8.661052 23.953137
275 1 9.359801 1.017382 23.500000
276 1 6.813791 7.557676 25.969698
277 1 16.012419 9.212220 23.500000
278 1 8.763718 9.269760 25.167056
279 1 9.294941 5.044778 28.783184
280 1 4.633701 3.975727 27.112280
281 1 12.953424 4.537315 25.736823
282 1 7.872531 9.457216 29.773612
283 1 7.866557 0.590273 29.665715
284 1 7.071960 6.405062 26.293964
285 1 8.717042 9.382387 27.800493
286 1 4.401000 7.451140 26.222191
287 1 8.663937 8.395496 31.458854
288 1 8.146588 9.861260 29.626995
289 1 13.163925 8.223262 28.865427
290 1 5.915708 0.166157 30.360705
291 1 6.845343 7.509431 33.051092
292 1 10.694318 4.271259 34.079528
293 1 0.740638 4.840795 31.535734
294 1 0.552699 7.851418 29.596520
295 1 14.969738 0.147207 34.122288
296 1 16.444295 0.974005 34.122288
297 1 14.024512 2.295017 32.690381
298 1 11.346447 5.607853 29.571912
299 1 2.949403 9.752849 29.030183
300 1 1.867108 7.535726 30.980649
