300
Atoms. Timestep: 0
166654880              2.629919                     5             34.329673
166654880              2.629919                     5             36.789673
166654880              2.629919                     5             39.249673
166654880              2.629919                     5             41.709673
166654880              2.629919                     5             44.169673
166654880              2.629919                     5             46.629673
166654880              2.629919                     5             49.089673
166654880              4.771382                     5             33.099673
166654880              4.771382                     5             35.559673
166654880              4.771382                     5             38.019673
166654880              4.771382                     5             40.479673
166654880              4.771382                     5             42.939673
166654880              4.771382                     5             45.399673
166654880              4.771382                     5             47.859673
166654880              4.057675                     5             34.329673
166654880              4.057675                     5             36.789673
166654880              4.057675                     5             39.249673
166654880              4.057675                     5             41.709673
166654880              4.057675                     5             44.169673
166654880              4.057675                     5             46.629673
166654880              4.057675                     5             49.089673
166654880              6.199138                     5             33.099673
166654880              6.199138                     5             35.559673
166654880              6.199138                     5             38.019673
166654880              6.199138                     5             40.479673
166654880              6.199138                     5             42.939673
166654880              6.199138                     5             45.399673
166654880              6.199138                     5             47.859673
166654880              6.912844                     5             34.329673
166654880              6.912844                     5             36.789673
166654848              6.912844                     5             39.249673
166654848              6.912844                     5             41.709673
166654848              6.912844                     5             44.169673
166654848              6.912844                     5             46.629673
166654848              6.912844                     5             49.089673
166654848              9.054307                     5             33.099673
166654848              9.054307                     5             35.559673
166654848              9.054307                     5             38.019673
166654848              9.054307                     5             40.479673
166654848              9.054307                     5             42.939673
166654848              9.054307                     5             45.399673
166654848              9.054307                     5             47.859673
166654848                8.3406                     5             34.329673
166654848                8.3406                     5             36.789673
166654848                8.3406                     5             39.249673
166654848                8.3406                     5             41.709673
166654848                8.3406                     5             44.169673
166654848                8.3406                     5             46.629673
166654848                8.3406                     5             49.089673
166654848             10.482063                     5             33.099673
166654848             10.482063                     5             35.559673
166654848             10.482063                     5             38.019673
166654848             10.482063                     5             40.479673
166654848             10.482063                     5             42.939673
166654848             10.482063                     5             45.399673
166654848             10.482063                     5             47.859673
166654848             11.195769                     5             34.329673
166654848             11.195769                     5             36.789673
166654848             11.195769                     5             39.249673
166654848             11.195769                     5             41.709673
166654848             11.195769                     5             44.169673
166654848             11.195769                     5             46.629673
166654848             11.195769                     5             49.089673
166654848             13.337232                     5             33.099673
166654848             13.337232                     5             35.559673
166654848             13.337232                     5             38.019673
166654848             13.337232                     5             40.479673
166654848             13.337232                     5             42.939673
166654848             13.337232                     5             45.399673
166654848             13.337232                     5             47.859673
166654848             12.623525                     5             34.329673
166654848             12.623525                     5             36.789673
166654848             12.623525                     5             39.249673
166654848             12.623525                     5             41.709673
166654848             12.623525                     5             44.169673
166654848             12.623525                     5             46.629673
166654848             12.623525                     5             49.089673
166654848             14.764988                     5             33.099673
166654848             14.764988                     5             35.559673
166654848             14.764988                     5             38.019673
166654848             14.764988                     5             40.479673
166654848             14.764988                     5             42.939673
166654848             14.764988                     5             45.399673
166654848             14.764988                     5             47.859673
166654848             15.478694                     5             34.329673
166654848             15.478694                     5             36.789673
166654848             15.478694                     5             39.249673
166654848             15.478694                     5             41.709673
166654848             15.478694                     5             44.169673
166654848             15.478694                     5             46.629673
166654848             15.478694                     5             49.089673
166654848              0.488457                     5             33.099673
166654848              0.488457                     5             35.559673
166654848              0.488457                     5             38.019673
166654848              0.488457                     5             40.479673
166654848              0.488457                     5             42.939673
166654848              0.488457                     5             45.399673
166654848              0.488457                     5             47.859673
166654848              16.90645                     5             34.329673
166654848              16.90645                     5             36.789673
166654848              16.90645                     5             39.249673
166654848              16.90645                     5             41.709673
166654848              16.90645                     5             44.169673
166654848              16.90645                     5             46.629673
166654848              16.90645                     5             49.089673
166654848              1.916213                     5             33.099673
166654848              1.916213                     5             35.559673
166654848              1.916213                     5             38.019673
166654848              1.916213                     5             40.479673
166654848              1.916213                     5             42.939673
166654848              1.916213                     5             45.399673
166654848              1.916213                     5             47.859673
166654880              2.059776                     5    0.0771730000000019
166654880              4.627647                     5    0.0771730000000019
166654880              6.344928                     5    0.0781729999999996
166654880              8.910572                     5    0.0771730000000019
166654880             10.627853                     5    0.0781729999999996
166654880             13.193497                     5    0.0771730000000019
166654880             14.910778                     5    0.0781729999999996
166654880              0.344722                     5    0.0771730000000019
166654848             17.091783                     5                8.5655
166654848             17.091783                     5               12.8265
166654848             17.091783                     5               17.0875
166654848             17.091783                     5                21.348
166654848             17.091783                     5                 9.986
166654848             17.091783                     5               14.2465
166654848             17.091783                     5               18.5075
166654848             17.091783                     5               22.7685
166654848             15.868066                     5                10.696
166654848             15.868066                     5                14.957
166654848             15.868066                     5               19.2175
166654848             15.868066                     5               23.4785
166654848             15.868066                     5                7.8555
166654848             15.868066                     5               12.1165
166654848             15.868066                     5                16.377
166654848             15.868066                     5                20.638
166654848             14.644348                     5                8.5655
166654848             14.644348                     5               12.8265
166654848             14.644348                     5               17.0875
166654848             14.644348                     5                21.348
166654848             13.420631                     5                10.696
166654848             13.420631                     5                14.957
166654848             13.420631                     5               19.2175
166654848             13.420631                     5               23.4785
166654848             14.644348                     5                 9.986
166654848             14.644348                     5               14.2465
166654848             14.644348                     5               18.5075
166654848             14.644348                     5               22.7685
166654848             13.420631                     5                7.8555
166654848             13.420631                     5               12.1165
166654848             13.420631                     5                16.377
166654848             13.420631                     5                20.638
166654848             12.197085                     5                8.5655
166654848             12.197085                     5               12.8265
166654848             12.197085                     5               17.0875
166654848             12.197085                     5                21.348
166654848             10.973368                     5                10.696
166654848             10.973368                     5                14.957
166654848             10.973368                     5               19.2175
166654848             10.973368                     5               23.4785
166654848             12.197085                     5                 9.986
166654848             12.197085                     5               14.2465
166654848             12.197085                     5               18.5075
166654848             12.197085                     5               22.7685
166654848             10.973368                     5                7.8555
166654848             10.973368                     5               12.1165
166654848             10.973368                     5                16.377
166654848             10.973368                     5                20.638
166654848               9.74965                     5                8.5655
166654848               9.74965                     5               12.8265
166654848               9.74965                     5               17.0875
166654848               9.74965                     5                21.348
166654848              8.525933                     5                10.696
166654848              8.525933                     5                14.957
166654848              8.525933                     5               19.2175
166654848              8.525933                     5               23.4785
166654848               9.74965                     5                 9.986
166654848               9.74965                     5               14.2465
166654848               9.74965                     5               18.5075
166654848               9.74965                     5               22.7685
166654848              8.525933                     5                7.8555
166654848              8.525933                     5               12.1165
166654848              8.525933                     5                16.377
166654848              8.525933                     5                20.638
166654848              7.302216                     5                8.5655
166654848              7.302216                     5               12.8265
166654848              7.302216                     5               17.0875
166654848              7.302216                     5                21.348
166654848              6.078498                     5                10.696
166654848              6.078498                     5                14.957
166654848              6.078498                     5               19.2175
166654848              6.078498                     5               23.4785
166654848              7.302216                     5                 9.986
166654848              7.302216                     5               14.2465
166654848              7.302216                     5               18.5075
166654848              7.302216                     5               22.7685
166654848              6.078498                     5                7.8555
166654848              6.078498                     5               12.1165
166654848              6.078498                     5                16.377
166654848              6.078498                     5                20.638
166654848              4.854781                     5                8.5655
166654848              4.854781                     5               12.8265
166654848              4.854781                     5               17.0875
166654848              4.854781                     5                21.348
166654848              3.631235                     5                10.696
166654848              3.631235                     5                14.957
166654848              3.631235                     5               19.2175
166654848              3.631235                     5               23.4785
166654848              4.854781                     5                 9.986
166654848              4.854781                     5               14.2465
166654848              4.854781                     5               18.5075
166654848              4.854781                     5               22.7685
166654848              3.631235                     5                7.8555
166654848              3.631235                     5               12.1165
166654848              3.631235                     5                16.377
166654848              3.631235                     5                20.638
166654848              2.407518                     5                8.5655
166654848              2.407518                     5               12.8265
166654848              2.407518                     5               17.0875
166654848              2.407518                     5                21.348
166654848                1.1838                     5                10.696
166654848                1.1838                     5                14.957
166654848                1.1838                     5               19.2175
166654848                1.1838                     5               23.4785
166654848              2.407518                     5                 9.986
166654848              2.407518                     5               14.2465
166654848              2.407518                     5               18.5075
166654848              2.407518                     5               22.7685
166654848                1.1838                     5                7.8555
166654848                1.1838                     5               12.1165
166654848                1.1838                     5                16.377
166654848                1.1838                     5                20.638
166654880             15.865667                     5                6.7155
166654880              13.42303                     5                6.7155
166654880             10.975766                     5                6.7155
166654880              8.528332                     5                6.7155
166654880              6.080897                     5                6.7155
166654880              3.633634                     5                6.7155
166654880              1.181402                     5                6.7155
166654880              4.375119              1.855628             25.468901
166654880               2.28585              9.671563             24.405556
166654880              2.154004               2.18436              24.52648
166654880              4.058354               4.55674             26.032535
166654880              7.595385              9.459921             25.294415
166654880             11.269269              0.041858             23.961651
166654880             12.886355              5.531615             27.202711
166654880             11.630976              2.025756             25.614303
166654880             16.863904              2.848107             24.213806
166654880              3.450701              0.407533              28.21953
166654880              4.863472              6.666987             26.653158
166654880              5.941575              6.951723             29.276464
166654880              1.550526              4.257471             28.250994
166654880             16.051775              1.974189             27.570147
166654880              8.127844               3.80933             28.441843
166654880             14.590826              5.255037              27.03206
166654880              1.088854              8.679195             28.933686
166654880              9.534005              8.536605             29.789116
166654880              5.791317              2.299933             33.023173
166654880              1.045702              0.318652             33.023173
166654880             17.067262              0.609874             33.023173
166654880              1.204685              6.861616             29.917927
166654880              8.336997              8.631405             31.655281
166654880               9.52853              3.734055             31.748027
166654880              0.194122              8.449497             28.925591
166654880             14.348477              7.928858             31.800246
166654880             11.472107              9.221667             32.493569
166654880             15.829445              6.678777             31.728289
166654848              1.825554               2.16973             24.130817
166654848              1.848155              5.299406             25.178824
166654848             15.877971              5.898086                  23.5
166654848              10.16338              5.680354             24.753957
166654848              5.875895              7.877374                  23.5
166654848             12.673046              0.643369             24.448974
166654848             12.077482              3.662048             24.903592
166654848             12.749777              4.042332                  23.5
166654848             15.897493              5.490761             24.749453
166654848              0.058893              8.421553             23.818733
166654848              6.418455              9.470326                  23.5
166654848             13.703115              1.301853             28.419318
166654848              2.543549              5.233925             27.058086
166654848              1.557654              3.708133             25.748308
166654848             15.047153              0.607165             26.068395
166654848             15.481557              9.299665             27.507616
166654848             10.316251              5.018132             26.276306
166654848              3.519989              5.767339             25.357854
166654848             15.230931              8.426689             27.490497
166654848              5.163317               4.79187             25.596266
166654848             11.760499              5.323348             24.148451
166654848              8.635221              7.501106             27.985811
166654848              7.881482              1.509413             33.023173
166654848              4.018844              5.135973             29.158908
166654848              0.382353               8.02596             31.811776
166654848              5.083696              0.128893             31.614403
166654848              3.986252              1.505482             33.023173
166654848              2.388133              3.613003             32.826635
166654848             14.533334              3.820667             29.548751
166654848              0.772779              4.095181             30.154409
166654848              6.750734               7.69381             31.838221
166654848              16.93129              0.313165             30.371744
166654848              11.08205              9.557943             32.959577
300
Atoms. Timestep: 10
166654880      2.62982701809753                     5      34.3297964996246
166654880      2.62982701809753                     5      36.7897964996246
166654880      2.62982701809753                     5      39.2497964996246
166654880      2.62982701809753                     5      41.7097964996246
166654880      2.62982701809753                     5      44.1697964996246
166654880      2.62982701809753                     5      46.6297964996246
166654880      2.62982701809753                     5      49.0897964996246
166654880      4.77129001809753                     5      33.0997964996246
166654880      4.77129001809753                     5      35.5597964996246
166654880      4.77129001809753                     5      38.0197964996246
166654880      4.77129001809753                     5      40.4797964996246
166654880      4.77129001809753                     5      42.9397964996246
166654880      4.77129001809753                     5      45.3997964996246
166654880      4.77129001809753                     5      47.8597964996246
166654880      4.05758301809753                     5      34.3297964996246
166654880      4.05758301809753                     5      36.7897964996246
166654880      4.05758301809753                     5      39.2497964996246
166654880      4.05758301809753                     5      41.7097964996246
166654880      4.05758301809753                     5      44.1697964996246
166654880      4.05758301809753                     5      46.6297964996246
166654880      4.05758301809753                     5      49.0897964996246
166654880      6.19904601809753                     5      33.0997964996246
166654880      6.19904601809753                     5      35.5597964996246
166654880      6.19904601809753                     5      38.0197964996246
166654880      6.19904601809753                     5      40.4797964996246
166654880      6.19904601809753                     5      42.9397964996246
166654880      6.19904601809753                     5      45.3997964996246
166654880      6.19904601809753                     5      47.8597964996246
166654880      6.91275201809753                     5      34.3297964996246
166654880      6.91275201809753                     5      36.7897964996246
166654848      6.91275201809753                     5      39.2497964996246
166654848      6.91275201809753                     5      41.7097964996246
166654848      6.91275201809753                     5      44.1697964996246
166654848      6.91275201809753                     5      46.6297964996246
166654848      6.91275201809753                     5      49.0897964996246
166654848      9.05421501809753                     5      33.0997964996246
166654848      9.05421501809753                     5      35.5597964996246
166654848      9.05421501809753                     5      38.0197964996246
166654848      9.05421501809753                     5      40.4797964996246
166654848      9.05421501809753                     5      42.9397964996246
166654848      9.05421501809753                     5      45.3997964996246
166654848      9.05421501809753                     5      47.8597964996246
166654848      8.34050801809753                     5      34.3297964996246
166654848      8.34050801809753                     5      36.7897964996246
166654848      8.34050801809753                     5      39.2497964996246
166654848      8.34050801809753                     5      41.7097964996246
166654848      8.34050801809753                     5      44.1697964996246
166654848      8.34050801809753                     5      46.6297964996246
166654848      8.34050801809753                     5      49.0897964996246
166654848      10.4819710180975                     5      33.0997964996246
166654848      10.4819710180975                     5      35.5597964996246
166654848      10.4819710180975                     5      38.0197964996246
166654848      10.4819710180975                     5      40.4797964996246
166654848      10.4819710180975                     5      42.9397964996246
166654848      10.4819710180975                     5      45.3997964996246
166654848      10.4819710180975                     5      47.8597964996246
166654848      11.1956770180975                     5      34.3297964996246
166654848      11.1956770180975                     5      36.7897964996246
166654848      11.1956770180975                     5      39.2497964996246
166654848      11.1956770180975                     5      41.7097964996246
166654848      11.1956770180975                     5      44.1697964996246
166654848      11.1956770180975                     5      46.6297964996246
166654848      11.1956770180975                     5      49.0897964996246
166654848      13.3371400180975                     5      33.0997964996246
166654848      13.3371400180975                     5      35.5597964996246
166654848      13.3371400180975                     5      38.0197964996246
166654848      13.3371400180975                     5      40.4797964996246
166654848      13.3371400180975                     5      42.9397964996246
166654848      13.3371400180975                     5      45.3997964996246
166654848      13.3371400180975                     5      47.8597964996246
166654848      12.6234330180975                     5      34.3297964996246
166654848      12.6234330180975                     5      36.7897964996246
166654848      12.6234330180975                     5      39.2497964996246
166654848      12.6234330180975                     5      41.7097964996246
166654848      12.6234330180975                     5      44.1697964996246
166654848      12.6234330180975                     5      46.6297964996246
166654848      12.6234330180975                     5      49.0897964996246
166654848      14.7648960180975                     5      33.0997964996246
166654848      14.7648960180975                     5      35.5597964996246
166654848      14.7648960180975                     5      38.0197964996246
166654848      14.7648960180975                     5      40.4797964996246
166654848      14.7648960180975                     5      42.9397964996246
166654848      14.7648960180975                     5      45.3997964996246
166654848      14.7648960180975                     5      47.8597964996246
166654848      15.4786020180975                     5      34.3297964996246
166654848      15.4786020180975                     5      36.7897964996246
166654848      15.4786020180975                     5      39.2497964996246
166654848      15.4786020180975                     5      41.7097964996246
166654848      15.4786020180975                     5      44.1697964996246
166654848      15.4786020180975                     5      46.6297964996246
166654848      15.4786020180975                     5      49.0897964996246
166654848     0.488365018097534                     5      33.0997964996246
166654848     0.488365018097534                     5      35.5597964996246
166654848     0.488365018097534                     5      38.0197964996246