search structure

300 atoms
2  atom types

0   17.131700 xlo xhi
0   10.000000 ylo yhi
0   50.000000 zlo zhi

Atoms

1 2 2.629919 5.000000 34.329673
2 2 2.629919 5.000000 36.789673
3 2 2.629919 5.000000 39.249673
4 2 2.629919 5.000000 41.709673
5 2 2.629919 5.000000 44.169673
6 2 2.629919 5.000000 46.629673
7 2 2.629919 5.000000 49.089673
8 2 4.771382 5.000000 33.099673
9 2 4.771382 5.000000 35.559673
10 2 4.771382 5.000000 38.019673
11 2 4.771382 5.000000 40.479673
12 2 4.771382 5.000000 42.939673
13 2 4.771382 5.000000 45.399673
14 2 4.771382 5.000000 47.859673
15 2 4.057675 5.000000 34.329673
16 2 4.057675 5.000000 36.789673
17 2 4.057675 5.000000 39.249673
18 2 4.057675 5.000000 41.709673
19 2 4.057675 5.000000 44.169673
20 2 4.057675 5.000000 46.629673
21 2 4.057675 5.000000 49.089673
22 2 6.199138 5.000000 33.099673
23 2 6.199138 5.000000 35.559673
24 2 6.199138 5.000000 38.019673
25 2 6.199138 5.000000 40.479673
26 2 6.199138 5.000000 42.939673
27 2 6.199138 5.000000 45.399673
28 2 6.199138 5.000000 47.859673
29 2 6.912844 5.000000 34.329673
30 2 6.912844 5.000000 36.789673
31 1 6.912844 5.000000 39.249673
32 1 6.912844 5.000000 41.709673
33 1 6.912844 5.000000 44.169673
34 1 6.912844 5.000000 46.629673
35 1 6.912844 5.000000 49.089673
36 1 9.054307 5.000000 33.099673
37 1 9.054307 5.000000 35.559673
38 1 9.054307 5.000000 38.019673
39 1 9.054307 5.000000 40.479673
40 1 9.054307 5.000000 42.939673
41 1 9.054307 5.000000 45.399673
42 1 9.054307 5.000000 47.859673
43 1 8.340600 5.000000 34.329673
44 1 8.340600 5.000000 36.789673
45 1 8.340600 5.000000 39.249673
46 1 8.340600 5.000000 41.709673
47 1 8.340600 5.000000 44.169673
48 1 8.340600 5.000000 46.629673
49 1 8.340600 5.000000 49.089673
50 1 10.482063 5.000000 33.099673
51 1 10.482063 5.000000 35.559673
52 1 10.482063 5.000000 38.019673
53 1 10.482063 5.000000 40.479673
54 1 10.482063 5.000000 42.939673
55 1 10.482063 5.000000 45.399673
56 1 10.482063 5.000000 47.859673
57 1 11.195769 5.000000 34.329673
58 1 11.195769 5.000000 36.789673
59 1 11.195769 5.000000 39.249673
60 1 11.195769 5.000000 41.709673
61 1 11.195769 5.000000 44.169673
62 1 11.195769 5.000000 46.629673
63 1 11.195769 5.000000 49.089673
64 1 13.337232 5.000000 33.099673
65 1 13.337232 5.000000 35.559673
66 1 13.337232 5.000000 38.019673
67 1 13.337232 5.000000 40.479673
68 1 13.337232 5.000000 42.939673
69 1 13.337232 5.000000 45.399673
70 1 13.337232 5.000000 47.859673
71 1 12.623525 5.000000 34.329673
72 1 12.623525 5.000000 36.789673
73 1 12.623525 5.000000 39.249673
74 1 12.623525 5.000000 41.709673
75 1 12.623525 5.000000 44.169673
76 1 12.623525 5.000000 46.629673
77 1 12.623525 5.000000 49.089673
78 1 14.764988 5.000000 33.099673
79 1 14.764988 5.000000 35.559673
80 1 14.764988 5.000000 38.019673
81 1 14.764988 5.000000 40.479673
82 1 14.764988 5.000000 42.939673
83 1 14.764988 5.000000 45.399673
84 1 14.764988 5.000000 47.859673
85 1 15.478694 5.000000 34.329673
86 1 15.478694 5.000000 36.789673
87 1 15.478694 5.000000 39.249673
88 1 15.478694 5.000000 41.709673
89 1 15.478694 5.000000 44.169673
90 1 15.478694 5.000000 46.629673
91 1 15.478694 5.000000 49.089673
92 1 0.488457 5.000000 33.099673
93 1 0.488457 5.000000 35.559673
94 1 0.488457 5.000000 38.019673
95 1 0.488457 5.000000 40.479673
96 1 0.488457 5.000000 42.939673
97 1 0.488457 5.000000 45.399673
98 1 0.488457 5.000000 47.859673
99 1 16.906450 5.000000 34.329673
100 1 16.906450 5.000000 36.789673
101 1 16.906450 5.000000 39.249673
102 1 16.906450 5.000000 41.709673
103 1 16.906450 5.000000 44.169673
104 1 16.906450 5.000000 46.629673
105 1 16.906450 5.000000 49.089673
106 1 1.916213 5.000000 33.099673
107 1 1.916213 5.000000 35.559673
108 1 1.916213 5.000000 38.019673
109 1 1.916213 5.000000 40.479673
110 1 1.916213 5.000000 42.939673
111 1 1.916213 5.000000 45.399673
112 1 1.916213 5.000000 47.859673
113 2 2.059776 5.000000 50.077173
114 2 4.627647 5.000000 50.077173
115 2 6.344928 5.000000 50.078173
116 2 8.910572 5.000000 50.077173
117 2 10.627853 5.000000 50.078173
118 2 13.193497 5.000000 50.077173
119 2 14.910778 5.000000 50.078173
120 2 0.344722 5.000000 50.077173
121 1 -0.039917 5.000000 8.565500
122 1 -0.039917 5.000000 12.826500
123 1 -0.039917 5.000000 17.087500
124 1 -0.039917 5.000000 21.348000
125 1 -0.039917 5.000000 9.986000
126 1 -0.039917 5.000000 14.246500
127 1 -0.039917 5.000000 18.507500
128 1 -0.039917 5.000000 22.768500
129 1 15.868066 5.000000 10.696000
130 1 15.868066 5.000000 14.957000
131 1 15.868066 5.000000 19.217500
132 1 15.868066 5.000000 23.478500
133 1 15.868066 5.000000 7.855500
134 1 15.868066 5.000000 12.116500
135 1 15.868066 5.000000 16.377000
136 1 15.868066 5.000000 20.638000
137 1 14.644348 5.000000 8.565500
138 1 14.644348 5.000000 12.826500
139 1 14.644348 5.000000 17.087500
140 1 14.644348 5.000000 21.348000
141 1 13.420631 5.000000 10.696000
142 1 13.420631 5.000000 14.957000
143 1 13.420631 5.000000 19.217500
144 1 13.420631 5.000000 23.478500
145 1 14.644348 5.000000 9.986000
146 1 14.644348 5.000000 14.246500
147 1 14.644348 5.000000 18.507500
148 1 14.644348 5.000000 22.768500
149 1 13.420631 5.000000 7.855500
150 1 13.420631 5.000000 12.116500
151 1 13.420631 5.000000 16.377000
152 1 13.420631 5.000000 20.638000
153 1 12.197085 5.000000 8.565500
154 1 12.197085 5.000000 12.826500
155 1 12.197085 5.000000 17.087500
156 1 12.197085 5.000000 21.348000
157 1 10.973368 5.000000 10.696000
158 1 10.973368 5.000000 14.957000
159 1 10.973368 5.000000 19.217500
160 1 10.973368 5.000000 23.478500
161 1 12.197085 5.000000 9.986000
162 1 12.197085 5.000000 14.246500
163 1 12.197085 5.000000 18.507500
164 1 12.197085 5.000000 22.768500
165 1 10.973368 5.000000 7.855500
166 1 10.973368 5.000000 12.116500
167 1 10.973368 5.000000 16.377000
168 1 10.973368 5.000000 20.638000
169 1 9.749650 5.000000 8.565500
170 1 9.749650 5.000000 12.826500
171 1 9.749650 5.000000 17.087500
172 1 9.749650 5.000000 21.348000
173 1 8.525933 5.000000 10.696000
174 1 8.525933 5.000000 14.957000
175 1 8.525933 5.000000 19.217500
176 1 8.525933 5.000000 23.478500
177 1 9.749650 5.000000 9.986000
178 1 9.749650 5.000000 14.246500
179 1 9.749650 5.000000 18.507500
180 1 9.749650 5.000000 22.768500
181 1 8.525933 5.000000 7.855500
182 1 8.525933 5.000000 12.116500
183 1 8.525933 5.000000 16.377000
184 1 8.525933 5.000000 20.638000
185 1 7.302216 5.000000 8.565500
186 1 7.302216 5.000000 12.826500
187 1 7.302216 5.000000 17.087500
188 1 7.302216 5.000000 21.348000
189 1 6.078498 5.000000 10.696000
190 1 6.078498 5.000000 14.957000
191 1 6.078498 5.000000 19.217500
192 1 6.078498 5.000000 23.478500
193 1 7.302216 5.000000 9.986000
194 1 7.302216 5.000000 14.246500
195 1 7.302216 5.000000 18.507500
196 1 7.302216 5.000000 22.768500
197 1 6.078498 5.000000 7.855500
198 1 6.078498 5.000000 12.116500
199 1 6.078498 5.000000 16.377000
200 1 6.078498 5.000000 20.638000
201 1 4.854781 5.000000 8.565500
202 1 4.854781 5.000000 12.826500
203 1 4.854781 5.000000 17.087500
204 1 4.854781 5.000000 21.348000
205 1 3.631235 5.000000 10.696000
206 1 3.631235 5.000000 14.957000
207 1 3.631235 5.000000 19.217500
208 1 3.631235 5.000000 23.478500
209 1 4.854781 5.000000 9.986000
210 1 4.854781 5.000000 14.246500
211 1 4.854781 5.000000 18.507500
212 1 4.854781 5.000000 22.768500
213 1 3.631235 5.000000 7.855500
214 1 3.631235 5.000000 12.116500
215 1 3.631235 5.000000 16.377000
216 1 3.631235 5.000000 20.638000
217 1 2.407518 5.000000 8.565500
218 1 2.407518 5.000000 12.826500
219 1 2.407518 5.000000 17.087500
220 1 2.407518 5.000000 21.348000
221 1 1.183800 5.000000 10.696000
222 1 1.183800 5.000000 14.957000
223 1 1.183800 5.000000 19.217500
224 1 1.183800 5.000000 23.478500
225 1 2.407518 5.000000 9.986000
226 1 2.407518 5.000000 14.246500
227 1 2.407518 5.000000 18.507500
228 1 2.407518 5.000000 22.768500
229 1 1.183800 5.000000 7.855500
230 1 1.183800 5.000000 12.116500
231 1 1.183800 5.000000 16.377000
232 1 1.183800 5.000000 20.638000
233 2 15.865667 5.000000 6.715500
234 2 13.423030 5.000000 6.715500
235 2 10.975766 5.000000 6.715500
236 2 8.528332 5.000000 6.715500
237 2 6.080897 5.000000 6.715500
238 2 3.633634 5.000000 6.715500
239 2 1.181402 5.000000 6.715500
240 2 4.375119 1.855628 25.468901
241 2 2.285850 9.671563 24.405556
242 2 2.154004 2.184360 24.526480
243 2 4.058354 4.556740 26.032535
244 2 7.595385 9.459921 25.294415
245 2 11.269269 0.041858 23.961651
246 2 12.886355 5.531615 27.202711
247 2 11.630976 2.025756 25.614303
248 2 16.863904 2.848107 24.213806
249 2 3.450701 0.407533 28.219530
250 2 4.863472 6.666987 26.653158
251 2 5.941575 6.951723 29.276464
252 2 1.550526 4.257471 28.250994
253 2 16.051775 1.974189 27.570147
254 2 8.127844 3.809330 28.441843
255 2 14.590826 5.255037 27.032060
256 2 1.088854 8.679195 28.933686
257 2 9.534005 8.536605 29.789116
258 2 5.791317 2.299933 33.023173
259 2 1.045702 0.318652 33.023173
260 2 17.067262 0.609874 33.023173
261 2 1.204685 6.861616 29.917927
262 2 8.336997 8.631405 31.655281
263 2 9.528530 3.734055 31.748027
264 2 0.194122 8.449497 28.925591
265 2 14.348477 7.928858 31.800246
266 2 11.472107 9.221667 32.493569
267 2 15.829445 6.678777 31.728289
268 1 1.825554 2.169730 24.130817
269 1 1.848155 5.299406 25.178824
270 1 15.877971 5.898086 23.500000
271 1 10.163380 5.680354 24.753957
272 1 5.875895 7.877374 23.500000
273 1 12.673046 0.643369 24.448974
274 1 12.077482 3.662048 24.903592
275 1 12.749777 4.042332 23.500000
276 1 15.897493 5.490761 24.749453
277 1 0.058893 8.421553 23.818733
278 1 6.418455 9.470326 23.500000
279 1 13.703115 1.301853 28.419318
280 1 2.543549 5.233925 27.058086
281 1 1.557654 3.708133 25.748308
282 1 15.047153 0.607165 26.068395
283 1 15.481557 9.299665 27.507616
284 1 10.316251 5.018132 26.276306
285 1 3.519989 5.767339 25.357854
286 1 15.230931 8.426689 27.490497
287 1 5.163317 4.791870 25.596266
288 1 11.760499 5.323348 24.148451
289 1 8.635221 7.501106 27.985811
290 1 7.881482 1.509413 33.023173
291 1 4.018844 5.135973 29.158908
292 1 0.382353 8.025960 31.811776
293 1 5.083696 0.128893 31.614403
294 1 3.986252 1.505482 33.023173
295 1 2.388133 3.613003 32.826635
296 1 14.533334 3.820667 29.548751
297 1 0.772779 4.095181 30.154409
298 1 6.750734 7.693810 31.838221
299 1 16.931290 0.313165 30.371744
300 1 11.082050 9.557943 32.959577
