300
Atoms. Timestep: 0
135504800              4.344517                     5               34.3065
135504800              4.344517                     5               36.7665
135504800              4.344517                     5               39.2265
135504800              4.344517                     5               41.6865
135504800              4.344517                     5               44.1465
135504800              4.344517                     5               46.6065
135504800              4.344517                     5               49.0665
135504800              6.485979                     5               33.0765
135504800              6.485979                     5               35.5365
135504800              6.485979                     5               37.9965
135504800              6.485979                     5               40.4565
135504800              6.485979                     5               42.9165
135504800              6.485979                     5               45.3765
135504800              6.485979                     5               47.8365
135504800              5.772272                     5               34.3065
135504800              5.772272                     5               36.7665
135504800              5.772272                     5               39.2265
135504800              5.772272                     5               41.6865
135504800              5.772272                     5               44.1465
135504800              5.772272                     5               46.6065
135504800              5.772272                     5               49.0665
135504800              7.913735                     5               33.0765
135504800              7.913735                     5               35.5365
135504800              7.913735                     5               37.9965
135504800              7.913735                     5               40.4565
135504800              7.913735                     5               42.9165
135504800              7.913735                     5               45.3765
135504800              7.913735                     5               47.8365
135504800              8.627442                     5               34.3065
135504800              8.627442                     5               36.7665
135504768              8.627442                     5               39.2265
135504768              8.627442                     5               41.6865
135504768              8.627442                     5               44.1465
135504768              8.627442                     5               46.6065
135504768              8.627442                     5               49.0665
135504768             10.768904                     5               33.0765
135504768             10.768904                     5               35.5365
135504768             10.768904                     5               37.9965
135504768             10.768904                     5               40.4565
135504768             10.768904                     5               42.9165
135504768             10.768904                     5               45.3765
135504768             10.768904                     5               47.8365
135504768             10.055197                     5               34.3065
135504768             10.055197                     5               36.7665
135504768             10.055197                     5               39.2265
135504768             10.055197                     5               41.6865
135504768             10.055197                     5               44.1465
135504768             10.055197                     5               46.6065
135504768             10.055197                     5               49.0665
135504768              12.19666                     5               33.0765
135504768              12.19666                     5               35.5365
135504768              12.19666                     5               37.9965
135504768              12.19666                     5               40.4565
135504768              12.19666                     5               42.9165
135504768              12.19666                     5               45.3765
135504768              12.19666                     5               47.8365
135504768             12.910367                     5               34.3065
135504768             12.910367                     5               36.7665
135504768             12.910367                     5               39.2265
135504768             12.910367                     5               41.6865
135504768             12.910367                     5               44.1465
135504768             12.910367                     5               46.6065
135504768             12.910367                     5               49.0665
135504768             15.051829                     5               33.0765
135504768             15.051829                     5               35.5365
135504768             15.051829                     5               37.9965
135504768             15.051829                     5               40.4565
135504768             15.051829                     5               42.9165
135504768             15.051829                     5               45.3765
135504768             15.051829                     5               47.8365
135504768             14.338122                     5               34.3065
135504768             14.338122                     5               36.7665
135504768             14.338122                     5               39.2265
135504768             14.338122                     5               41.6865
135504768             14.338122                     5               44.1465
135504768             14.338122                     5               46.6065
135504768             14.338122                     5               49.0665
135504768             16.479585                     5               33.0765
135504768             16.479585                     5               35.5365
135504768             16.479585                     5               37.9965
135504768             16.479585                     5               40.4565
135504768             16.479585                     5               42.9165
135504768             16.479585                     5               45.3765
135504768             16.479585                     5               47.8365
135504768              0.061592                     5               34.3065
135504768              0.061592                     5               36.7665
135504768              0.061592                     5               39.2265
135504768              0.061592                     5               41.6865
135504768              0.061592                     5               44.1465
135504768              0.061592                     5               46.6065
135504768              0.061592                     5               49.0665
135504768              2.203054                     5               33.0765
135504768              2.203054                     5               35.5365
135504768              2.203054                     5               37.9965
135504768              2.203054                     5               40.4565
135504768              2.203054                     5               42.9165
135504768              2.203054                     5               45.3765
135504768              2.203054                     5               47.8365
135504768              1.489347                     5               34.3065
135504768              1.489347                     5               36.7665
135504768              1.489347                     5               39.2265
135504768              1.489347                     5               41.6865
135504768              1.489347                     5               44.1465
135504768              1.489347                     5               46.6065
135504768              1.489347                     5               49.0665
135504768               3.63081                     5               33.0765
135504768               3.63081                     5               35.5365
135504768               3.63081                     5               37.9965
135504768               3.63081                     5               40.4565
135504768               3.63081                     5               42.9165
135504768               3.63081                     5               45.3765
135504768               3.63081                     5               47.8365
135504800              3.774374                     5     0.054000000000002
135504800              6.342244                     5     0.054000000000002
135504800              8.059526                     5    0.0549999999999997
135504800             10.625169                     5     0.054000000000002
135504800             12.342451                     5    0.0549999999999997
135504800             14.908094                     5     0.054000000000002
135504800             16.625376                     5    0.0549999999999997
135504800              2.059319                     5     0.054000000000002
135504768             17.091783                     5                8.5655
135504768             17.091783                     5               12.8265
135504768             17.091783                     5               17.0875
135504768             17.091783                     5                21.348
135504768             17.091783                     5                 9.986
135504768             17.091783                     5               14.2465
135504768             17.091783                     5               18.5075
135504768             17.091783                     5               22.7685
135504768             15.868066                     5                10.696
135504768             15.868066                     5                14.957
135504768             15.868066                     5               19.2175
135504768             15.868066                     5               23.4785
135504768             15.868066                     5                7.8555
135504768             15.868066                     5               12.1165
135504768             15.868066                     5                16.377
135504768             15.868066                     5                20.638
135504768             14.644348                     5                8.5655
135504768             14.644348                     5               12.8265
135504768             14.644348                     5               17.0875
135504768             14.644348                     5                21.348
135504768             13.420631                     5                10.696
135504768             13.420631                     5                14.957
135504768             13.420631                     5               19.2175
135504768             13.420631                     5               23.4785
135504768             14.644348                     5                 9.986
135504768             14.644348                     5               14.2465
135504768             14.644348                     5               18.5075
135504768             14.644348                     5               22.7685
135504768             13.420631                     5                7.8555
135504768             13.420631                     5               12.1165
135504768             13.420631                     5                16.377
135504768             13.420631                     5                20.638
135504768             12.197085                     5                8.5655
135504768             12.197085                     5               12.8265
135504768             12.197085                     5               17.0875
135504768             12.197085                     5                21.348
135504768             10.973368                     5                10.696
135504768             10.973368                     5                14.957
135504768             10.973368                     5               19.2175
135504768             10.973368                     5               23.4785
135504768             12.197085                     5                 9.986
135504768             12.197085                     5               14.2465
135504768             12.197085                     5               18.5075
135504768             12.197085                     5               22.7685
135504768             10.973368                     5                7.8555
135504768             10.973368                     5               12.1165
135504768             10.973368                     5                16.377
135504768             10.973368                     5                20.638
135504768               9.74965                     5                8.5655
135504768               9.74965                     5               12.8265
135504768               9.74965                     5               17.0875
135504768               9.74965                     5                21.348
135504768              8.525933                     5                10.696
135504768              8.525933                     5                14.957
135504768              8.525933                     5               19.2175
135504768              8.525933                     5               23.4785
135504768               9.74965                     5                 9.986
135504768               9.74965                     5               14.2465
135504768               9.74965                     5               18.5075
135504768               9.74965                     5               22.7685
135504768              8.525933                     5                7.8555
135504768              8.525933                     5               12.1165
135504768              8.525933                     5                16.377
135504768              8.525933                     5                20.638
135504768              7.302216                     5                8.5655
135504768              7.302216                     5               12.8265
135504768              7.302216                     5               17.0875
135504768              7.302216                     5                21.348
135504768              6.078498                     5                10.696
135504768              6.078498                     5                14.957
135504768              6.078498                     5               19.2175
135504768              6.078498                     5               23.4785
135504768              7.302216                     5                 9.986
135504768              7.302216                     5               14.2465
135504768              7.302216                     5               18.5075
135504768              7.302216                     5               22.7685
135504768              6.078498                     5                7.8555
135504768              6.078498                     5               12.1165
135504768              6.078498                     5                16.377
135504768              6.078498                     5                20.638
135504768              4.854781                     5                8.5655
135504768              4.854781                     5               12.8265
135504768              4.854781                     5               17.0875
135504768              4.854781                     5                21.348
135504768              3.631235                     5                10.696
135504768              3.631235                     5                14.957
135504768              3.631235                     5               19.2175
135504768              3.631235                     5               23.4785
135504768              4.854781                     5                 9.986
135504768              4.854781                     5               14.2465
135504768              4.854781                     5               18.5075
135504768              4.854781                     5               22.7685
135504768              3.631235                     5                7.8555
135504768              3.631235                     5               12.1165
135504768              3.631235                     5                16.377
135504768              3.631235                     5                20.638
135504768              2.407518                     5                8.5655
135504768              2.407518                     5               12.8265
135504768              2.407518                     5               17.0875
135504768              2.407518                     5                21.348
135504768                1.1838                     5                10.696
135504768                1.1838                     5                14.957
135504768                1.1838                     5               19.2175
135504768                1.1838                     5               23.4785
135504768              2.407518                     5                 9.986
135504768              2.407518                     5               14.2465
135504768              2.407518                     5               18.5075
135504768              2.407518                     5               22.7685
135504768                1.1838                     5                7.8555
135504768                1.1838                     5               12.1165
135504768                1.1838                     5                16.377
135504768                1.1838                     5                20.638
135504800             15.865667                     5                6.7155
135504800              13.42303                     5                6.7155
135504800             10.975766                     5                6.7155
135504800              8.528332                     5                6.7155
135504800              6.080897                     5                6.7155
135504800              3.633634                     5                6.7155
135504800              1.181402                     5                6.7155
135504800             16.200786                2.6021             24.787275
135504800              7.270472              1.790453             24.557982
135504800              5.496286              8.408967                  23.5
135504800              2.879011              0.142855             26.983255
135504800               2.41848              1.279251                  23.5
135504800              5.541098               0.97952             26.876487
135504800              9.623658              2.841004                  23.5
135504800               13.2007               8.97313                  23.5
135504800              6.299045              4.853013             25.889732
135504800              6.621253              1.358197             24.357458
135504800              1.112129              9.552544             26.204429
135504800             13.161919              8.910217             25.405833
135504800              0.961754              5.432386             26.227772
135504800              9.941733              8.665992             26.119514
135504800              4.655284              3.744693             27.398429
135504800              9.715699              2.810211             26.903931
135504800             11.005643              3.881092             24.753963
135504800             11.761097              9.736684             27.853146
135504800              4.447402              7.790787             31.454091
135504800             13.160817              9.858153             31.147739
135504800              3.369372              3.083912             28.296609
135504800              7.824428              2.294243              30.52561
135504800              3.025606              3.842743             27.281867
135504800             12.567393              9.512078             31.873877
135504800              6.699366              3.010987             32.615041
135504800              2.719337              2.139148              28.49676
135504800             12.919115              3.477571                  23.5
135504800             12.045248              4.846241             27.290282
135504768              8.969052              2.986448             23.996647
135504768             14.699445              5.049023             24.176334
135504768              5.116175              2.349272             24.046486
135504768             10.804044              8.588012             24.821021
135504768              7.670694              9.676538             25.037162
135504768              4.566737              3.592866                  23.5
135504768             15.711454              7.909306             26.045929
135504768             13.117373              6.725492             24.321921
135504768             12.977415              8.737183                  23.5
135504768               2.96824              0.402399                  23.5
135504768               8.40478              9.726444             24.028613
135504768              7.391063               2.85409              24.13192
135504768              5.042116              4.916171             24.739313
135504768             11.266819              7.209884                  23.5
135504768              9.609729              8.621289             28.887781
135504768              8.621841              0.753718             28.845478
135504768             10.126165              1.895772             31.993855
135504768              1.020736              4.892244             30.062914
135504768              5.190565              9.520601             28.570868
135504768              8.886833              0.499369              27.76164
135504768             16.663509              9.656677             25.431066
135504768               1.64029              1.105026             30.061284
135504768             16.171822              5.971066             29.490498
135504768                6.2627              1.009649                    33
135504768              7.181721              0.842457             32.454285
135504768             16.159404              3.336496             30.696629
135504768             11.582552              0.365884              26.65468
135504768              8.589094              3.338246                    33
135504768              0.724421              1.127682                    33
135504768             10.638409              1.124199             30.048458
135504768              4.377282              8.774305             31.817152
135504768             15.895662               7.68271                    33
135504768             16.298622              0.009726              32.66489
300
Atoms. Timestep: 10
135504800       4.3412585366758                     5      34.3079365838773
135504800       4.3412585366758                     5      36.7679365838773
135504800       4.3412585366758                     5      39.2279365838773
135504800       4.3412585366758                     5      41.6879365838773
135504800       4.3412585366758                     5      44.1479365838773
135504800       4.3412585366758                     5      46.6079365838773
135504800       4.3412585366758                     5      49.0679365838773
135504800       6.4827205366758                     5      33.0779365838773
135504800       6.4827205366758                     5      35.5379365838773
135504800       6.4827205366758                     5      37.9979365838773
135504800       6.4827205366758                     5      40.4579365838773
135504800       6.4827205366758                     5      42.9179365838773
135504800       6.4827205366758                     5      45.3779365838773
135504800       6.4827205366758                     5      47.8379365838773
135504800       5.7690135366758                     5      34.3079365838773
135504800       5.7690135366758                     5      36.7679365838773
135504800       5.7690135366758                     5      39.2279365838773
135504800       5.7690135366758                     5      41.6879365838773
135504800       5.7690135366758                     5      44.1479365838773
135504800       5.7690135366758                     5      46.6079365838773
135504800       5.7690135366758                     5      49.0679365838773
135504800       7.9104765366758                     5      33.0779365838773
135504800       7.9104765366758                     5      35.5379365838773
135504800       7.9104765366758                     5      37.9979365838773
135504800       7.9104765366758                     5      40.4579365838773
135504800       7.9104765366758                     5      42.9179365838773
135504800       7.9104765366758                     5      45.3779365838773
135504800       7.9104765366758                     5      47.8379365838773
135504800       8.6241835366758                     5      34.3079365838773
135504800       8.6241835366758                     5      36.7679365838773
135504768       8.6241835366758                     5      39.2279365838773
135504768       8.6241835366758                     5      41.6879365838773
135504768       8.6241835366758                     5      44.1479365838773
135504768       8.6241835366758                     5      46.6079365838773
135504768       8.6241835366758                     5      49.0679365838773
135504768      10.7656455366758                     5      33.0779365838773
135504768      10.7656455366758                     5      35.5379365838773
135504768      10.7656455366758                     5      37.9979365838773
135504768      10.7656455366758                     5      40.4579365838773
135504768      10.7656455366758                     5      42.9179365838773
135504768      10.7656455366758                     5      45.3779365838773
135504768      10.7656455366758                     5      47.8379365838773
135504768      10.0519385366758                     5      34.3079365838773
135504768      10.0519385366758                     5      36.7679365838773
135504768      10.0519385366758                     5      39.2279365838773
135504768      10.0519385366758                     5      41.6879365838773
135504768      10.0519385366758                     5      44.1479365838773
135504768      10.0519385366758                     5      46.6079365838773
135504768      10.0519385366758                     5      49.0679365838773
135504768      12.1934015366758                     5      33.0779365838773
135504768      12.1934015366758                     5      35.5379365838773
135504768      12.1934015366758                     5      37.9979365838773
135504768      12.1934015366758                     5      40.4579365838773
135504768      12.1934015366758                     5      42.9179365838773
135504768      12.1934015366758                     5      45.3779365838773
135504768      12.1934015366758                     5      47.8379365838773
135504768      12.9071085366758                     5      34.3079365838773
135504768      12.9071085366758                     5      36.7679365838773
135504768      12.9071085366758                     5      39.2279365838773
135504768      12.9071085366758                     5      41.6879365838773
135504768      12.9071085366758                     5      44.1479365838773
135504768      12.9071085366758                     5      46.6079365838773
135504768      12.9071085366758                     5      49.0679365838773
135504768      15.0485705366758                     5      33.0779365838773
135504768      15.0485705366758                     5      35.5379365838773
135504768      15.0485705366758                     5      37.9979365838773
135504768      15.0485705366758                     5      40.4579365838773
135504768      15.0485705366758                     5      42.9179365838773
135504768      15.0485705366758                     5      45.3779365838773
135504768      15.0485705366758                     5      47.8379365838773
135504768      14.3348635366758                     5      34.3079365838773
135504768      14.3348635366758                     5      36.7679365838773
135504768      14.3348635366758                     5      39.2279365838773
135504768      14.3348635366758                     5      41.6879365838773
135504768      14.3348635366758                     5      44.1479365838773
135504768      14.3348635366758                     5      46.6079365838773
135504768      14.3348635366758                     5      49.0679365838773
135504768      16.4763265366758                     5      33.0779365838773
135504768      16.4763265366758                     5      35.5379365838773
135504768      16.4763265366758                     5      37.9979365838773
135504768      16.4763265366758                     5      40.4579365838773
135504768      16.4763265366758                     5      42.9179365838773
135504768      16.4763265366758                     5      45.3779365838773
135504768      16.4763265366758                     5      47.8379365838773
135504768    0.0583335366758002                     5      34.3079365838773
135504768    0.0583335366758002                     5      36.7679365838773
135504768    0.0583335366758002                     5      39.2279365838773
135504768    0.0583335366758002                     5      41.6879365838773
135504768    0.0583335366758002                     5      44.1479365838773
135504768    0.0583335366758002                     5      46.6079365838773
135504768    0.0583335366758002                     5      49.0679365838773
135504768       2.1997955366758                     5      33.0779365838773
135504768       2.1997955366758                     5      35.5379365838773
135504768       2.1997955366758                     5      37.9979365838773