search structure

300 atoms
2  atom types

0   17.131700 xlo xhi
0   10.000000 ylo yhi
0   50.000000 zlo zhi

Atoms

1 2 4.344517 5.000000 34.306500
2 2 4.344517 5.000000 36.766500
3 2 4.344517 5.000000 39.226500
4 2 4.344517 5.000000 41.686500
5 2 4.344517 5.000000 44.146500
6 2 4.344517 5.000000 46.606500
7 2 4.344517 5.000000 49.066500
8 2 6.485979 5.000000 33.076500
9 2 6.485979 5.000000 35.536500
10 2 6.485979 5.000000 37.996500
11 2 6.485979 5.000000 40.456500
12 2 6.485979 5.000000 42.916500
13 2 6.485979 5.000000 45.376500
14 2 6.485979 5.000000 47.836500
15 2 5.772272 5.000000 34.306500
16 2 5.772272 5.000000 36.766500
17 2 5.772272 5.000000 39.226500
18 2 5.772272 5.000000 41.686500
19 2 5.772272 5.000000 44.146500
20 2 5.772272 5.000000 46.606500
21 2 5.772272 5.000000 49.066500
22 2 7.913735 5.000000 33.076500
23 2 7.913735 5.000000 35.536500
24 2 7.913735 5.000000 37.996500
25 2 7.913735 5.000000 40.456500
26 2 7.913735 5.000000 42.916500
27 2 7.913735 5.000000 45.376500
28 2 7.913735 5.000000 47.836500
29 2 8.627442 5.000000 34.306500
30 2 8.627442 5.000000 36.766500
31 1 8.627442 5.000000 39.226500
32 1 8.627442 5.000000 41.686500
33 1 8.627442 5.000000 44.146500
34 1 8.627442 5.000000 46.606500
35 1 8.627442 5.000000 49.066500
36 1 10.768904 5.000000 33.076500
37 1 10.768904 5.000000 35.536500
38 1 10.768904 5.000000 37.996500
39 1 10.768904 5.000000 40.456500
40 1 10.768904 5.000000 42.916500
41 1 10.768904 5.000000 45.376500
42 1 10.768904 5.000000 47.836500
43 1 10.055197 5.000000 34.306500
44 1 10.055197 5.000000 36.766500
45 1 10.055197 5.000000 39.226500
46 1 10.055197 5.000000 41.686500
47 1 10.055197 5.000000 44.146500
48 1 10.055197 5.000000 46.606500
49 1 10.055197 5.000000 49.066500
50 1 12.196660 5.000000 33.076500
51 1 12.196660 5.000000 35.536500
52 1 12.196660 5.000000 37.996500
53 1 12.196660 5.000000 40.456500
54 1 12.196660 5.000000 42.916500
55 1 12.196660 5.000000 45.376500
56 1 12.196660 5.000000 47.836500
57 1 12.910367 5.000000 34.306500
58 1 12.910367 5.000000 36.766500
59 1 12.910367 5.000000 39.226500
60 1 12.910367 5.000000 41.686500
61 1 12.910367 5.000000 44.146500
62 1 12.910367 5.000000 46.606500
63 1 12.910367 5.000000 49.066500
64 1 15.051829 5.000000 33.076500
65 1 15.051829 5.000000 35.536500
66 1 15.051829 5.000000 37.996500
67 1 15.051829 5.000000 40.456500
68 1 15.051829 5.000000 42.916500
69 1 15.051829 5.000000 45.376500
70 1 15.051829 5.000000 47.836500
71 1 14.338122 5.000000 34.306500
72 1 14.338122 5.000000 36.766500
73 1 14.338122 5.000000 39.226500
74 1 14.338122 5.000000 41.686500
75 1 14.338122 5.000000 44.146500
76 1 14.338122 5.000000 46.606500
77 1 14.338122 5.000000 49.066500
78 1 16.479585 5.000000 33.076500
79 1 16.479585 5.000000 35.536500
80 1 16.479585 5.000000 37.996500
81 1 16.479585 5.000000 40.456500
82 1 16.479585 5.000000 42.916500
83 1 16.479585 5.000000 45.376500
84 1 16.479585 5.000000 47.836500
85 1 0.061592 5.000000 34.306500
86 1 0.061592 5.000000 36.766500
87 1 0.061592 5.000000 39.226500
88 1 0.061592 5.000000 41.686500
89 1 0.061592 5.000000 44.146500
90 1 0.061592 5.000000 46.606500
91 1 0.061592 5.000000 49.066500
92 1 2.203054 5.000000 33.076500
93 1 2.203054 5.000000 35.536500
94 1 2.203054 5.000000 37.996500
95 1 2.203054 5.000000 40.456500
96 1 2.203054 5.000000 42.916500
97 1 2.203054 5.000000 45.376500
98 1 2.203054 5.000000 47.836500
99 1 1.489347 5.000000 34.306500
100 1 1.489347 5.000000 36.766500
101 1 1.489347 5.000000 39.226500
102 1 1.489347 5.000000 41.686500
103 1 1.489347 5.000000 44.146500
104 1 1.489347 5.000000 46.606500
105 1 1.489347 5.000000 49.066500
106 1 3.630810 5.000000 33.076500
107 1 3.630810 5.000000 35.536500
108 1 3.630810 5.000000 37.996500
109 1 3.630810 5.000000 40.456500
110 1 3.630810 5.000000 42.916500
111 1 3.630810 5.000000 45.376500
112 1 3.630810 5.000000 47.836500
113 2 3.774374 5.000000 50.054000
114 2 6.342244 5.000000 50.054000
115 2 8.059526 5.000000 50.055000
116 2 10.625169 5.000000 50.054000
117 2 12.342451 5.000000 50.055000
118 2 14.908094 5.000000 50.054000
119 2 16.625376 5.000000 50.055000
120 2 2.059319 5.000000 50.054000
121 1 -0.039917 5.000000 8.565500
122 1 -0.039917 5.000000 12.826500
123 1 -0.039917 5.000000 17.087500
124 1 -0.039917 5.000000 21.348000
125 1 -0.039917 5.000000 9.986000
126 1 -0.039917 5.000000 14.246500
127 1 -0.039917 5.000000 18.507500
128 1 -0.039917 5.000000 22.768500
129 1 15.868066 5.000000 10.696000
130 1 15.868066 5.000000 14.957000
131 1 15.868066 5.000000 19.217500
132 1 15.868066 5.000000 23.478500
133 1 15.868066 5.000000 7.855500
134 1 15.868066 5.000000 12.116500
135 1 15.868066 5.000000 16.377000
136 1 15.868066 5.000000 20.638000
137 1 14.644348 5.000000 8.565500
138 1 14.644348 5.000000 12.826500
139 1 14.644348 5.000000 17.087500
140 1 14.644348 5.000000 21.348000
141 1 13.420631 5.000000 10.696000
142 1 13.420631 5.000000 14.957000
143 1 13.420631 5.000000 19.217500
144 1 13.420631 5.000000 23.478500
145 1 14.644348 5.000000 9.986000
146 1 14.644348 5.000000 14.246500
147 1 14.644348 5.000000 18.507500
148 1 14.644348 5.000000 22.768500
149 1 13.420631 5.000000 7.855500
150 1 13.420631 5.000000 12.116500
151 1 13.420631 5.000000 16.377000
152 1 13.420631 5.000000 20.638000
153 1 12.197085 5.000000 8.565500
154 1 12.197085 5.000000 12.826500
155 1 12.197085 5.000000 17.087500
156 1 12.197085 5.000000 21.348000
157 1 10.973368 5.000000 10.696000
158 1 10.973368 5.000000 14.957000
159 1 10.973368 5.000000 19.217500
160 1 10.973368 5.000000 23.478500
161 1 12.197085 5.000000 9.986000
162 1 12.197085 5.000000 14.246500
163 1 12.197085 5.000000 18.507500
164 1 12.197085 5.000000 22.768500
165 1 10.973368 5.000000 7.855500
166 1 10.973368 5.000000 12.116500
167 1 10.973368 5.000000 16.377000
168 1 10.973368 5.000000 20.638000
169 1 9.749650 5.000000 8.565500
170 1 9.749650 5.000000 12.826500
171 1 9.749650 5.000000 17.087500
172 1 9.749650 5.000000 21.348000
173 1 8.525933 5.000000 10.696000
174 1 8.525933 5.000000 14.957000
175 1 8.525933 5.000000 19.217500
176 1 8.525933 5.000000 23.478500
177 1 9.749650 5.000000 9.986000
178 1 9.749650 5.000000 14.246500
179 1 9.749650 5.000000 18.507500
180 1 9.749650 5.000000 22.768500
181 1 8.525933 5.000000 7.855500
182 1 8.525933 5.000000 12.116500
183 1 8.525933 5.000000 16.377000
184 1 8.525933 5.000000 20.638000
185 1 7.302216 5.000000 8.565500
186 1 7.302216 5.000000 12.826500
187 1 7.302216 5.000000 17.087500
188 1 7.302216 5.000000 21.348000
189 1 6.078498 5.000000 10.696000
190 1 6.078498 5.000000 14.957000
191 1 6.078498 5.000000 19.217500
192 1 6.078498 5.000000 23.478500
193 1 7.302216 5.000000 9.986000
194 1 7.302216 5.000000 14.246500
195 1 7.302216 5.000000 18.507500
196 1 7.302216 5.000000 22.768500
197 1 6.078498 5.000000 7.855500
198 1 6.078498 5.000000 12.116500
199 1 6.078498 5.000000 16.377000
200 1 6.078498 5.000000 20.638000
201 1 4.854781 5.000000 8.565500
202 1 4.854781 5.000000 12.826500
203 1 4.854781 5.000000 17.087500
204 1 4.854781 5.000000 21.348000
205 1 3.631235 5.000000 10.696000
206 1 3.631235 5.000000 14.957000
207 1 3.631235 5.000000 19.217500
208 1 3.631235 5.000000 23.478500
209 1 4.854781 5.000000 9.986000
210 1 4.854781 5.000000 14.246500
211 1 4.854781 5.000000 18.507500
212 1 4.854781 5.000000 22.768500
213 1 3.631235 5.000000 7.855500
214 1 3.631235 5.000000 12.116500
215 1 3.631235 5.000000 16.377000
216 1 3.631235 5.000000 20.638000
217 1 2.407518 5.000000 8.565500
218 1 2.407518 5.000000 12.826500
219 1 2.407518 5.000000 17.087500
220 1 2.407518 5.000000 21.348000
221 1 1.183800 5.000000 10.696000
222 1 1.183800 5.000000 14.957000
223 1 1.183800 5.000000 19.217500
224 1 1.183800 5.000000 23.478500
225 1 2.407518 5.000000 9.986000
226 1 2.407518 5.000000 14.246500
227 1 2.407518 5.000000 18.507500
228 1 2.407518 5.000000 22.768500
229 1 1.183800 5.000000 7.855500
230 1 1.183800 5.000000 12.116500
231 1 1.183800 5.000000 16.377000
232 1 1.183800 5.000000 20.638000
233 2 15.865667 5.000000 6.715500
234 2 13.423030 5.000000 6.715500
235 2 10.975766 5.000000 6.715500
236 2 8.528332 5.000000 6.715500
237 2 6.080897 5.000000 6.715500
238 2 3.633634 5.000000 6.715500
239 2 1.181402 5.000000 6.715500
240 2 16.200786 2.602100 24.787275
241 2 7.270472 1.790453 24.557982
242 2 5.496286 8.408967 23.500000
243 2 2.879011 0.142855 26.983255
244 2 2.418480 1.279251 23.500000
245 2 5.541098 0.979520 26.876487
246 2 9.623658 2.841004 23.500000
247 2 13.200700 8.973130 23.500000
248 2 6.299045 4.853013 25.889732
249 2 6.621253 1.358197 24.357458
250 2 1.112129 9.552544 26.204429
251 2 13.161919 8.910217 25.405833
252 2 0.961754 5.432386 26.227772
253 2 9.941733 8.665992 26.119514
254 2 4.655284 3.744693 27.398429
255 2 9.715699 2.810211 26.903931
256 2 11.005643 3.881092 24.753963
257 2 11.761097 9.736684 27.853146
258 2 4.447402 7.790787 31.454091
259 2 13.160817 9.858153 31.147739
260 2 3.369372 3.083912 28.296609
261 2 7.824428 2.294243 30.525610
262 2 3.025606 3.842743 27.281867
263 2 12.567393 9.512078 31.873877
264 2 6.699366 3.010987 32.615041
265 2 2.719337 2.139148 28.496760
266 2 12.919115 3.477571 23.500000
267 2 12.045248 4.846241 27.290282
268 1 8.969052 2.986448 23.996647
269 1 14.699445 5.049023 24.176334
270 1 5.116175 2.349272 24.046486
271 1 10.804044 8.588012 24.821021
272 1 7.670694 9.676538 25.037162
273 1 4.566737 3.592866 23.500000
274 1 15.711454 7.909306 26.045929
275 1 13.117373 6.725492 24.321921
276 1 12.977415 8.737183 23.500000
277 1 2.968240 0.402399 23.500000
278 1 8.404780 9.726444 24.028613
279 1 7.391063 2.854090 24.131920
280 1 5.042116 4.916171 24.739313
281 1 11.266819 7.209884 23.500000
282 1 9.609729 8.621289 28.887781
283 1 8.621841 0.753718 28.845478
284 1 10.126165 1.895772 31.993855
285 1 1.020736 4.892244 30.062914
286 1 5.190565 9.520601 28.570868
287 1 8.886833 0.499369 27.761640
288 1 16.663509 9.656677 25.431066
289 1 1.640290 1.105026 30.061284
290 1 16.171822 5.971066 29.490498
291 1 6.262700 1.009649 33.000000
292 1 7.181721 0.842457 32.454285
293 1 16.159404 3.336496 30.696629
294 1 11.582552 0.365884 26.654680
295 1 8.589094 3.338246 33.000000
296 1 0.724421 1.127682 33.000000
297 1 10.638409 1.124199 30.048458
298 1 4.377282 8.774305 31.817152
299 1 15.895662 7.682710 33.000000
300 1 16.298622 0.009726 32.664890
