300
Atoms. Timestep: 0
142832544              1.546196                     5             34.725745
142832544              1.546196                     5             37.185745
142832544              1.546196                     5             39.645745
142832544              1.546196                     5             42.105745
142832544              1.546196                     5             44.565745
142832544              1.546196                     5             47.025745
142832544              1.546196                     5             49.485745
142832544              3.687658                     5             33.495745
142832544              3.687658                     5             35.955745
142832544              3.687658                     5             38.415745
142832544              3.687658                     5             40.875745
142832544              3.687658                     5             43.335745
142832544              3.687658                     5             45.795745
142832544              3.687658                     5             48.255745
142832544              2.973952                     5             34.725745
142832544              2.973952                     5             37.185745
142832544              2.973952                     5             39.645745
142832544              2.973952                     5             42.105745
142832544              2.973952                     5             44.565745
142832544              2.973952                     5             47.025745
142832544              2.973952                     5             49.485745
142832544              5.115414                     5             33.495745
142832544              5.115414                     5             35.955745
142832544              5.115414                     5             38.415745
142832544              5.115414                     5             40.875745
142832544              5.115414                     5             43.335745
142832544              5.115414                     5             45.795745
142832544              5.115414                     5             48.255745
142832544              5.829121                     5             34.725745
142832544              5.829121                     5             37.185745
142832512              5.829121                     5             39.645745
142832512              5.829121                     5             42.105745
142832512              5.829121                     5             44.565745
142832512              5.829121                     5             47.025745
142832512              5.829121                     5             49.485745
142832512              7.970583                     5             33.495745
142832512              7.970583                     5             35.955745
142832512              7.970583                     5             38.415745
142832512              7.970583                     5             40.875745
142832512              7.970583                     5             43.335745
142832512              7.970583                     5             45.795745
142832512              7.970583                     5             48.255745
142832512              7.256877                     5             34.725745
142832512              7.256877                     5             37.185745
142832512              7.256877                     5             39.645745
142832512              7.256877                     5             42.105745
142832512              7.256877                     5             44.565745
142832512              7.256877                     5             47.025745
142832512              7.256877                     5             49.485745
142832512              9.398339                     5             33.495745
142832512              9.398339                     5             35.955745
142832512              9.398339                     5             38.415745
142832512              9.398339                     5             40.875745
142832512              9.398339                     5             43.335745
142832512              9.398339                     5             45.795745
142832512              9.398339                     5             48.255745
142832512             10.112046                     5             34.725745
142832512             10.112046                     5             37.185745
142832512             10.112046                     5             39.645745
142832512             10.112046                     5             42.105745
142832512             10.112046                     5             44.565745
142832512             10.112046                     5             47.025745
142832512             10.112046                     5             49.485745
142832512             12.253508                     5             33.495745
142832512             12.253508                     5             35.955745
142832512             12.253508                     5             38.415745
142832512             12.253508                     5             40.875745
142832512             12.253508                     5             43.335745
142832512             12.253508                     5             45.795745
142832512             12.253508                     5             48.255745
142832512             11.539802                     5             34.725745
142832512             11.539802                     5             37.185745
142832512             11.539802                     5             39.645745
142832512             11.539802                     5             42.105745
142832512             11.539802                     5             44.565745
142832512             11.539802                     5             47.025745
142832512             11.539802                     5             49.485745
142832512             13.681264                     5             33.495745
142832512             13.681264                     5             35.955745
142832512             13.681264                     5             38.415745
142832512             13.681264                     5             40.875745
142832512             13.681264                     5             43.335745
142832512             13.681264                     5             45.795745
142832512             13.681264                     5             48.255745
142832512             14.394971                     5             34.725745
142832512             14.394971                     5             37.185745
142832512             14.394971                     5             39.645745
142832512             14.394971                     5             42.105745
142832512             14.394971                     5             44.565745
142832512             14.394971                     5             47.025745
142832512             14.394971                     5             49.485745
142832512             16.536433                     5             33.495745
142832512             16.536433                     5             35.955745
142832512             16.536433                     5             38.415745
142832512             16.536433                     5             40.875745
142832512             16.536433                     5             43.335745
142832512             16.536433                     5             45.795745
142832512             16.536433                     5             48.255745
142832512             15.822727                     5             34.725745
142832512             15.822727                     5             37.185745
142832512             15.822727                     5             39.645745
142832512             15.822727                     5             42.105745
142832512             15.822727                     5             44.565745
142832512             15.822727                     5             47.025745
142832512             15.822727                     5             49.485745
142832512              0.832489                     5             33.495745
142832512              0.832489                     5             35.955745
142832512              0.832489                     5             38.415745
142832512              0.832489                     5             40.875745
142832512              0.832489                     5             43.335745
142832512              0.832489                     5             45.795745
142832512              0.832489                     5             48.255745
142832544              0.976053                     5     0.473244999999999
142832544              3.543924                     5     0.473244999999999
142832544              5.261205                     5     0.474245000000003
142832544              7.826849                     5     0.473244999999999
142832544               9.54413                     5     0.474245000000003
142832544             12.109774                     5     0.473244999999999
142832544             13.827055                     5     0.474245000000003
142832544             16.392699                     5     0.473244999999999
142832512             17.091783                     5                8.5655
142832512             17.091783                     5               12.8265
142832512             17.091783                     5               17.0875
142832512             17.091783                     5                21.348
142832512             17.091783                     5                 9.986
142832512             17.091783                     5               14.2465
142832512             17.091783                     5               18.5075
142832512             17.091783                     5               22.7685
142832512             15.868066                     5                10.696
142832512             15.868066                     5                14.957
142832512             15.868066                     5               19.2175
142832512             15.868066                     5               23.4785
142832512             15.868066                     5                7.8555
142832512             15.868066                     5               12.1165
142832512             15.868066                     5                16.377
142832512             15.868066                     5                20.638
142832512             14.644348                     5                8.5655
142832512             14.644348                     5               12.8265
142832512             14.644348                     5               17.0875
142832512             14.644348                     5                21.348
142832512             13.420631                     5                10.696
142832512             13.420631                     5                14.957
142832512             13.420631                     5               19.2175
142832512             13.420631                     5               23.4785
142832512             14.644348                     5                 9.986
142832512             14.644348                     5               14.2465
142832512             14.644348                     5               18.5075
142832512             14.644348                     5               22.7685
142832512             13.420631                     5                7.8555
142832512             13.420631                     5               12.1165
142832512             13.420631                     5                16.377
142832512             13.420631                     5                20.638
142832512             12.197085                     5                8.5655
142832512             12.197085                     5               12.8265
142832512             12.197085                     5               17.0875
142832512             12.197085                     5                21.348
142832512             10.973368                     5                10.696
142832512             10.973368                     5                14.957
142832512             10.973368                     5               19.2175
142832512             10.973368                     5               23.4785
142832512             12.197085                     5                 9.986
142832512             12.197085                     5               14.2465
142832512             12.197085                     5               18.5075
142832512             12.197085                     5               22.7685
142832512             10.973368                     5                7.8555
142832512             10.973368                     5               12.1165
142832512             10.973368                     5                16.377
142832512             10.973368                     5                20.638
142832512               9.74965                     5                8.5655
142832512               9.74965                     5               12.8265
142832512               9.74965                     5               17.0875
142832512               9.74965                     5                21.348
142832512              8.525933                     5                10.696
142832512              8.525933                     5                14.957
142832512              8.525933                     5               19.2175
142832512              8.525933                     5               23.4785
142832512               9.74965                     5                 9.986
142832512               9.74965                     5               14.2465
142832512               9.74965                     5               18.5075
142832512               9.74965                     5               22.7685
142832512              8.525933                     5                7.8555
142832512              8.525933                     5               12.1165
142832512              8.525933                     5                16.377
142832512              8.525933                     5                20.638
142832512              7.302216                     5                8.5655
142832512              7.302216                     5               12.8265
142832512              7.302216                     5               17.0875
142832512              7.302216                     5                21.348
142832512              6.078498                     5                10.696
142832512              6.078498                     5                14.957
142832512              6.078498                     5               19.2175
142832512              6.078498                     5               23.4785
142832512              7.302216                     5                 9.986
142832512              7.302216                     5               14.2465
142832512              7.302216                     5               18.5075
142832512              7.302216                     5               22.7685
142832512              6.078498                     5                7.8555
142832512              6.078498                     5               12.1165
142832512              6.078498                     5                16.377
142832512              6.078498                     5                20.638
142832512              4.854781                     5                8.5655
142832512              4.854781                     5               12.8265
142832512              4.854781                     5               17.0875
142832512              4.854781                     5                21.348
142832512              3.631235                     5                10.696
142832512              3.631235                     5                14.957
142832512              3.631235                     5               19.2175
142832512              3.631235                     5               23.4785
142832512              4.854781                     5                 9.986
142832512              4.854781                     5               14.2465
142832512              4.854781                     5               18.5075
142832512              4.854781                     5               22.7685
142832512              3.631235                     5                7.8555
142832512              3.631235                     5               12.1165
142832512              3.631235                     5                16.377
142832512              3.631235                     5                20.638
142832512              2.407518                     5                8.5655
142832512              2.407518                     5               12.8265
142832512              2.407518                     5               17.0875
142832512              2.407518                     5                21.348
142832512                1.1838                     5                10.696
142832512                1.1838                     5                14.957
142832512                1.1838                     5               19.2175
142832512                1.1838                     5               23.4785
142832512              2.407518                     5                 9.986
142832512              2.407518                     5               14.2465
142832512              2.407518                     5               18.5075
142832512              2.407518                     5               22.7685
142832512                1.1838                     5                7.8555
142832512                1.1838                     5               12.1165
142832512                1.1838                     5                16.377
142832512                1.1838                     5                20.638
142832544             15.865667                     5                6.7155
142832544              13.42303                     5                6.7155
142832544             10.975766                     5                6.7155
142832544              8.528332                     5                6.7155
142832544              6.080897                     5                6.7155
142832544              3.633634                     5                6.7155
142832544              1.181402                     5                6.7155
142832544              3.106039                2.6021             27.097517
142832544              6.902727               3.00048             23.531672
142832544              0.541517              7.347998             26.557199
142832544              3.072522              7.483311             26.101807
142832544              8.847974              1.258399             25.948291
142832544              12.15322              1.733888             26.346603
142832544             14.670923              3.547521              24.96848
142832544              9.700259               3.83166             23.558422
142832544             13.237301              4.853013             25.996376
142832544              2.962557              3.786948              29.40469
142832544              6.109329               6.95067             29.540512
142832544              2.866631              8.910217             27.184079
142832544              2.359438              9.176298             29.314678
142832544             14.539307              1.255983             28.691575
142832544              16.59638              2.952015              27.57257
142832544              6.984893              3.694506             28.500576
142832544              6.989796              7.719808             28.952682
142832544             11.760986              9.380867              28.04689
142832544               4.89414              2.324396             31.945669
142832544              4.218557              2.625362             31.734786
142832544              0.796472              4.190029             32.473607
142832544               3.58076              5.363482             30.838574
142832544              3.025217              9.106657             31.219464
142832544              5.535872              0.017208              31.48999
142832544             16.827089              2.556767             31.855792
142832544             15.791449              5.371548             30.893202
142832544             10.311062              5.384613             30.267969
142832544             12.289815              5.529808             30.559182
142832512             10.528315              1.135462             25.121292
142832512             10.257175               1.16768             24.385204
142832512              7.954925              2.349272             23.813583
142832512              8.622894              3.979754             24.539361
142832512              6.093994              6.743774             24.618505
142832512             16.178207              0.110977             24.481822
142832512             16.692947              0.384696             25.284306
142832512             12.847732              0.484048             23.777611
142832512              12.82944              6.304026             24.323495
142832512             12.365072              8.454546             24.055248
142832512             11.885856              9.555694             23.575636
142832512              2.724271              5.072635             28.666073
142832512              4.150504              5.969267             27.593821
142832512              2.857825              6.109281             26.440662
142832512              0.473216              7.837797             28.111229
142832512              3.514708               8.97546             29.072862
142832512              4.579648              7.345142             26.880708
142832512             16.631564                7.6434             26.983372
142832512              9.554138               8.48288             28.812941
142832512             16.706384              9.062656             26.739788
142832512             16.613994              9.656677             25.706067
142832512             10.536087              9.786384              26.49151
142832512              7.927728              1.087649             30.915639
142832512               3.32001               3.89719             32.356504
142832512              6.876403              3.980819             32.706063
142832512              4.792539              7.679353             31.738879
142832512               2.73171              9.226883             33.137416
142832512             14.797894              3.338246              29.35007
142832512             13.221144              3.492899             33.230439
142832512             11.780072              4.162267             31.648572
142832512             10.596941              5.022612              29.64524
142832512              8.659879               5.90525             30.316008
142832512              8.763725              8.614231             30.763718
300
Atoms. Timestep: 10
142832544      1.54589428437764                     5      34.7297443225301
142832544      1.54589428437764                     5      37.1897443225301
142832544      1.54589428437764                     5      39.6497443225301
142832544      1.54589428437764                     5      42.1097443225301
142832544      1.54589428437764                     5      44.5697443225301
142832544      1.54589428437764                     5      47.0297443225301
142832544      1.54589428437764                     5      49.4897443225301
142832544      3.68735628437764                     5      33.4997443225301
142832544      3.68735628437764                     5      35.9597443225301
142832544      3.68735628437764                     5      38.4197443225301
142832544      3.68735628437764                     5      40.8797443225301
142832544      3.68735628437764                     5      43.3397443225301
142832544      3.68735628437764                     5      45.7997443225301
142832544      3.68735628437764                     5      48.2597443225301
142832544      2.97365028437764                     5      34.7297443225301
142832544      2.97365028437764                     5      37.1897443225301
142832544      2.97365028437764                     5      39.6497443225301
142832544      2.97365028437764                     5      42.1097443225301
142832544      2.97365028437764                     5      44.5697443225301
142832544      2.97365028437764                     5      47.0297443225301
142832544      2.97365028437764                     5      49.4897443225301
142832544      5.11511228437764                     5      33.4997443225301
142832544      5.11511228437764                     5      35.9597443225301
142832544      5.11511228437764                     5      38.4197443225301
142832544      5.11511228437764                     5      40.8797443225301
142832544      5.11511228437764                     5      43.3397443225301
142832544      5.11511228437764                     5      45.7997443225301
142832544      5.11511228437764                     5      48.2597443225301
142832544      5.82881928437764                     5      34.7297443225301
142832544      5.82881928437764                     5      37.1897443225301
142832512      5.82881928437764                     5      39.6497443225301
142832512      5.82881928437764                     5      42.1097443225301
142832512      5.82881928437764                     5      44.5697443225301
142832512      5.82881928437764                     5      47.0297443225301
142832512      5.82881928437764                     5      49.4897443225301
142832512      7.97028128437764                     5      33.4997443225301
142832512      7.97028128437764                     5      35.9597443225301
142832512      7.97028128437764                     5      38.4197443225301
142832512      7.97028128437764                     5      40.8797443225301
142832512      7.97028128437764                     5      43.3397443225301
142832512      7.97028128437764                     5      45.7997443225301
142832512      7.97028128437764                     5      48.2597443225301
142832512      7.25657528437764                     5      34.7297443225301
142832512      7.25657528437764                     5      37.1897443225301
142832512      7.25657528437764                     5      39.6497443225301
142832512      7.25657528437764                     5      42.1097443225301
142832512      7.25657528437764                     5      44.5697443225301
142832512      7.25657528437764                     5      47.0297443225301
142832512      7.25657528437764                     5      49.4897443225301
142832512      9.39803728437764                     5      33.4997443225301
142832512      9.39803728437764                     5      35.9597443225301
142832512      9.39803728437764                     5      38.4197443225301
142832512      9.39803728437764                     5      40.8797443225301
142832512      9.39803728437764                     5      43.3397443225301
142832512      9.39803728437764                     5      45.7997443225301
142832512      9.39803728437764                     5      48.2597443225301
142832512      10.1117442843776                     5      34.7297443225301
142832512      10.1117442843776                     5      37.1897443225301
142832512      10.1117442843776                     5      39.6497443225301
142832512      10.1117442843776                     5      42.1097443225301
142832512      10.1117442843776                     5      44.5697443225301
142832512      10.1117442843776                     5      47.0297443225301
142832512      10.1117442843776                     5      49.4897443225301
142832512      12.2532062843776                     5      33.4997443225301
142832512      12.2532062843776                     5      35.9597443225301
142832512      12.2532062843776                     5      38.4197443225301
142832512      12.2532062843776                     5      40.8797443225301
142832512      12.2532062843776                     5      43.3397443225301
142832512      12.2532062843776                     5      45.7997443225301
142832512      12.2532062843776                     5      48.2597443225301
142832512      11.5395002843776                     5      34.7297443225301
142832512      11.5395002843776                     5      37.1897443225301
142832512      11.5395002843776                     5      39.6497443225301
142832512      11.5395002843776                     5      42.1097443225301
142832512      11.5395002843776                     5      44.5697443225301
142832512      11.5395002843776                     5      47.0297443225301
142832512      11.5395002843776                     5      49.4897443225301
142832512      13.6809622843776                     5      33.4997443225301
142832512      13.6809622843776                     5      35.9597443225301
142832512      13.6809622843776                     5      38.4197443225301
142832512      13.6809622843776                     5      40.8797443225301
142832512      13.6809622843776                     5      43.3397443225301
142832512      13.6809622843776                     5      45.7997443225301
142832512      13.6809622843776                     5      48.2597443225301
142832512      14.3946692843776                     5      34.7297443225301
142832512      14.3946692843776                     5      37.1897443225301
142832512      14.3946692843776                     5      39.6497443225301
142832512      14.3946692843776                     5      42.1097443225301
142832512      14.3946692843776                     5      44.5697443225301
142832512      14.3946692843776                     5      47.0297443225301
142832512      14.3946692843776                     5      49.4897443225301
142832512      16.5361312843776                     5      33.4997443225301
142832512      16.5361312843776                     5      35.9597443225301
142832512      16.5361312843776                     5      38.4197443225301