search structure

300 atoms
2  atom types

0   17.131700 xlo xhi
0   10.000000 ylo yhi
0   50.000000 zlo zhi

Atoms

1 2 1.546196 5.000000 34.725745
2 2 1.546196 5.000000 37.185745
3 2 1.546196 5.000000 39.645745
4 2 1.546196 5.000000 42.105745
5 2 1.546196 5.000000 44.565745
6 2 1.546196 5.000000 47.025745
7 2 1.546196 5.000000 49.485745
8 2 3.687658 5.000000 33.495745
9 2 3.687658 5.000000 35.955745
10 2 3.687658 5.000000 38.415745
11 2 3.687658 5.000000 40.875745
12 2 3.687658 5.000000 43.335745
13 2 3.687658 5.000000 45.795745
14 2 3.687658 5.000000 48.255745
15 2 2.973952 5.000000 34.725745
16 2 2.973952 5.000000 37.185745
17 2 2.973952 5.000000 39.645745
18 2 2.973952 5.000000 42.105745
19 2 2.973952 5.000000 44.565745
20 2 2.973952 5.000000 47.025745
21 2 2.973952 5.000000 49.485745
22 2 5.115414 5.000000 33.495745
23 2 5.115414 5.000000 35.955745
24 2 5.115414 5.000000 38.415745
25 2 5.115414 5.000000 40.875745
26 2 5.115414 5.000000 43.335745
27 2 5.115414 5.000000 45.795745
28 2 5.115414 5.000000 48.255745
29 2 5.829121 5.000000 34.725745
30 2 5.829121 5.000000 37.185745
31 1 5.829121 5.000000 39.645745
32 1 5.829121 5.000000 42.105745
33 1 5.829121 5.000000 44.565745
34 1 5.829121 5.000000 47.025745
35 1 5.829121 5.000000 49.485745
36 1 7.970583 5.000000 33.495745
37 1 7.970583 5.000000 35.955745
38 1 7.970583 5.000000 38.415745
39 1 7.970583 5.000000 40.875745
40 1 7.970583 5.000000 43.335745
41 1 7.970583 5.000000 45.795745
42 1 7.970583 5.000000 48.255745
43 1 7.256877 5.000000 34.725745
44 1 7.256877 5.000000 37.185745
45 1 7.256877 5.000000 39.645745
46 1 7.256877 5.000000 42.105745
47 1 7.256877 5.000000 44.565745
48 1 7.256877 5.000000 47.025745
49 1 7.256877 5.000000 49.485745
50 1 9.398339 5.000000 33.495745
51 1 9.398339 5.000000 35.955745
52 1 9.398339 5.000000 38.415745
53 1 9.398339 5.000000 40.875745
54 1 9.398339 5.000000 43.335745
55 1 9.398339 5.000000 45.795745
56 1 9.398339 5.000000 48.255745
57 1 10.112046 5.000000 34.725745
58 1 10.112046 5.000000 37.185745
59 1 10.112046 5.000000 39.645745
60 1 10.112046 5.000000 42.105745
61 1 10.112046 5.000000 44.565745
62 1 10.112046 5.000000 47.025745
63 1 10.112046 5.000000 49.485745
64 1 12.253508 5.000000 33.495745
65 1 12.253508 5.000000 35.955745
66 1 12.253508 5.000000 38.415745
67 1 12.253508 5.000000 40.875745
68 1 12.253508 5.000000 43.335745
69 1 12.253508 5.000000 45.795745
70 1 12.253508 5.000000 48.255745
71 1 11.539802 5.000000 34.725745
72 1 11.539802 5.000000 37.185745
73 1 11.539802 5.000000 39.645745
74 1 11.539802 5.000000 42.105745
75 1 11.539802 5.000000 44.565745
76 1 11.539802 5.000000 47.025745
77 1 11.539802 5.000000 49.485745
78 1 13.681264 5.000000 33.495745
79 1 13.681264 5.000000 35.955745
80 1 13.681264 5.000000 38.415745
81 1 13.681264 5.000000 40.875745
82 1 13.681264 5.000000 43.335745
83 1 13.681264 5.000000 45.795745
84 1 13.681264 5.000000 48.255745
85 1 14.394971 5.000000 34.725745
86 1 14.394971 5.000000 37.185745
87 1 14.394971 5.000000 39.645745
88 1 14.394971 5.000000 42.105745
89 1 14.394971 5.000000 44.565745
90 1 14.394971 5.000000 47.025745
91 1 14.394971 5.000000 49.485745
92 1 16.536433 5.000000 33.495745
93 1 16.536433 5.000000 35.955745
94 1 16.536433 5.000000 38.415745
95 1 16.536433 5.000000 40.875745
96 1 16.536433 5.000000 43.335745
97 1 16.536433 5.000000 45.795745
98 1 16.536433 5.000000 48.255745
99 1 15.822727 5.000000 34.725745
100 1 15.822727 5.000000 37.185745
101 1 15.822727 5.000000 39.645745
102 1 15.822727 5.000000 42.105745
103 1 15.822727 5.000000 44.565745
104 1 15.822727 5.000000 47.025745
105 1 15.822727 5.000000 49.485745
106 1 0.832489 5.000000 33.495745
107 1 0.832489 5.000000 35.955745
108 1 0.832489 5.000000 38.415745
109 1 0.832489 5.000000 40.875745
110 1 0.832489 5.000000 43.335745
111 1 0.832489 5.000000 45.795745
112 1 0.832489 5.000000 48.255745
113 2 0.976053 5.000000 50.473245
114 2 3.543924 5.000000 50.473245
115 2 5.261205 5.000000 50.474245
116 2 7.826849 5.000000 50.473245
117 2 9.544130 5.000000 50.474245
118 2 12.109774 5.000000 50.473245
119 2 13.827055 5.000000 50.474245
120 2 16.392699 5.000000 50.473245
121 1 -0.039917 5.000000 8.565500
122 1 -0.039917 5.000000 12.826500
123 1 -0.039917 5.000000 17.087500
124 1 -0.039917 5.000000 21.348000
125 1 -0.039917 5.000000 9.986000
126 1 -0.039917 5.000000 14.246500
127 1 -0.039917 5.000000 18.507500
128 1 -0.039917 5.000000 22.768500
129 1 15.868066 5.000000 10.696000
130 1 15.868066 5.000000 14.957000
131 1 15.868066 5.000000 19.217500
132 1 15.868066 5.000000 23.478500
133 1 15.868066 5.000000 7.855500
134 1 15.868066 5.000000 12.116500
135 1 15.868066 5.000000 16.377000
136 1 15.868066 5.000000 20.638000
137 1 14.644348 5.000000 8.565500
138 1 14.644348 5.000000 12.826500
139 1 14.644348 5.000000 17.087500
140 1 14.644348 5.000000 21.348000
141 1 13.420631 5.000000 10.696000
142 1 13.420631 5.000000 14.957000
143 1 13.420631 5.000000 19.217500
144 1 13.420631 5.000000 23.478500
145 1 14.644348 5.000000 9.986000
146 1 14.644348 5.000000 14.246500
147 1 14.644348 5.000000 18.507500
148 1 14.644348 5.000000 22.768500
149 1 13.420631 5.000000 7.855500
150 1 13.420631 5.000000 12.116500
151 1 13.420631 5.000000 16.377000
152 1 13.420631 5.000000 20.638000
153 1 12.197085 5.000000 8.565500
154 1 12.197085 5.000000 12.826500
155 1 12.197085 5.000000 17.087500
156 1 12.197085 5.000000 21.348000
157 1 10.973368 5.000000 10.696000
158 1 10.973368 5.000000 14.957000
159 1 10.973368 5.000000 19.217500
160 1 10.973368 5.000000 23.478500
161 1 12.197085 5.000000 9.986000
162 1 12.197085 5.000000 14.246500
163 1 12.197085 5.000000 18.507500
164 1 12.197085 5.000000 22.768500
165 1 10.973368 5.000000 7.855500
166 1 10.973368 5.000000 12.116500
167 1 10.973368 5.000000 16.377000
168 1 10.973368 5.000000 20.638000
169 1 9.749650 5.000000 8.565500
170 1 9.749650 5.000000 12.826500
171 1 9.749650 5.000000 17.087500
172 1 9.749650 5.000000 21.348000
173 1 8.525933 5.000000 10.696000
174 1 8.525933 5.000000 14.957000
175 1 8.525933 5.000000 19.217500
176 1 8.525933 5.000000 23.478500
177 1 9.749650 5.000000 9.986000
178 1 9.749650 5.000000 14.246500
179 1 9.749650 5.000000 18.507500
180 1 9.749650 5.000000 22.768500
181 1 8.525933 5.000000 7.855500
182 1 8.525933 5.000000 12.116500
183 1 8.525933 5.000000 16.377000
184 1 8.525933 5.000000 20.638000
185 1 7.302216 5.000000 8.565500
186 1 7.302216 5.000000 12.826500
187 1 7.302216 5.000000 17.087500
188 1 7.302216 5.000000 21.348000
189 1 6.078498 5.000000 10.696000
190 1 6.078498 5.000000 14.957000
191 1 6.078498 5.000000 19.217500
192 1 6.078498 5.000000 23.478500
193 1 7.302216 5.000000 9.986000
194 1 7.302216 5.000000 14.246500
195 1 7.302216 5.000000 18.507500
196 1 7.302216 5.000000 22.768500
197 1 6.078498 5.000000 7.855500
198 1 6.078498 5.000000 12.116500
199 1 6.078498 5.000000 16.377000
200 1 6.078498 5.000000 20.638000
201 1 4.854781 5.000000 8.565500
202 1 4.854781 5.000000 12.826500
203 1 4.854781 5.000000 17.087500
204 1 4.854781 5.000000 21.348000
205 1 3.631235 5.000000 10.696000
206 1 3.631235 5.000000 14.957000
207 1 3.631235 5.000000 19.217500
208 1 3.631235 5.000000 23.478500
209 1 4.854781 5.000000 9.986000
210 1 4.854781 5.000000 14.246500
211 1 4.854781 5.000000 18.507500
212 1 4.854781 5.000000 22.768500
213 1 3.631235 5.000000 7.855500
214 1 3.631235 5.000000 12.116500
215 1 3.631235 5.000000 16.377000
216 1 3.631235 5.000000 20.638000
217 1 2.407518 5.000000 8.565500
218 1 2.407518 5.000000 12.826500
219 1 2.407518 5.000000 17.087500
220 1 2.407518 5.000000 21.348000
221 1 1.183800 5.000000 10.696000
222 1 1.183800 5.000000 14.957000
223 1 1.183800 5.000000 19.217500
224 1 1.183800 5.000000 23.478500
225 1 2.407518 5.000000 9.986000
226 1 2.407518 5.000000 14.246500
227 1 2.407518 5.000000 18.507500
228 1 2.407518 5.000000 22.768500
229 1 1.183800 5.000000 7.855500
230 1 1.183800 5.000000 12.116500
231 1 1.183800 5.000000 16.377000
232 1 1.183800 5.000000 20.638000
233 2 15.865667 5.000000 6.715500
234 2 13.423030 5.000000 6.715500
235 2 10.975766 5.000000 6.715500
236 2 8.528332 5.000000 6.715500
237 2 6.080897 5.000000 6.715500
238 2 3.633634 5.000000 6.715500
239 2 1.181402 5.000000 6.715500
240 2 3.106039 2.602100 27.097517
241 2 6.902727 3.000480 23.531672
242 2 0.541517 7.347998 26.557199
243 2 3.072522 7.483311 26.101807
244 2 8.847974 1.258399 25.948291
245 2 12.153220 1.733888 26.346603
246 2 14.670923 3.547521 24.968480
247 2 9.700259 3.831660 23.558422
248 2 13.237301 4.853013 25.996376
249 2 2.962557 3.786948 29.404690
250 2 6.109329 6.950670 29.540512
251 2 2.866631 8.910217 27.184079
252 2 2.359438 9.176298 29.314678
253 2 14.539307 1.255983 28.691575
254 2 16.596380 2.952015 27.572570
255 2 6.984893 3.694506 28.500576
256 2 6.989796 7.719808 28.952682
257 2 11.760986 9.380867 28.046890
258 2 4.894140 2.324396 31.945669
259 2 4.218557 2.625362 31.734786
260 2 0.796472 4.190029 32.473607
261 2 3.580760 5.363482 30.838574
262 2 3.025217 9.106657 31.219464
263 2 5.535872 0.017208 31.489990
264 2 16.827089 2.556767 31.855792
265 2 15.791449 5.371548 30.893202
266 2 10.311062 5.384613 30.267969
267 2 12.289815 5.529808 30.559182
268 1 10.528315 1.135462 25.121292
269 1 10.257175 1.167680 24.385204
270 1 7.954925 2.349272 23.813583
271 1 8.622894 3.979754 24.539361
272 1 6.093994 6.743774 24.618505
273 1 16.178207 0.110977 24.481822
274 1 16.692947 0.384696 25.284306
275 1 12.847732 0.484048 23.777611
276 1 12.829440 6.304026 24.323495
277 1 12.365072 8.454546 24.055248
278 1 11.885856 9.555694 23.575636
279 1 2.724271 5.072635 28.666073
280 1 4.150504 5.969267 27.593821
281 1 2.857825 6.109281 26.440662
282 1 0.473216 7.837797 28.111229
283 1 3.514708 8.975460 29.072862
284 1 4.579648 7.345142 26.880708
285 1 16.631564 7.643400 26.983372
286 1 9.554138 8.482880 28.812941
287 1 16.706384 9.062656 26.739788
288 1 16.613994 9.656677 25.706067
289 1 10.536087 9.786384 26.491510
290 1 7.927728 1.087649 30.915639
291 1 3.320010 3.897190 32.356504
292 1 6.876403 3.980819 32.706063
293 1 4.792539 7.679353 31.738879
294 1 2.731710 9.226883 33.137416
295 1 14.797894 3.338246 29.350070
296 1 13.221144 3.492899 33.230439
297 1 11.780072 4.162267 31.648572
298 1 10.596941 5.022612 29.645240
299 1 8.659879 5.905250 30.316008
300 1 8.763725 8.614231 30.763718
