300
Atoms. Timestep: 0
16692128              1.735591                     5               34.3065
16692128              1.735591                     5               36.7665
16692128              1.735591                     5               39.2265
16692128              1.735591                     5               41.6865
16692128              1.735591                     5               44.1465
16692128              1.735591                     5               46.6065
16692128              1.735591                     5               49.0665
16692128              3.877054                     5               33.0765
16692128              3.877054                     5               35.5365
16692128              3.877054                     5               37.9965
16692128              3.877054                     5               40.4565
16692128              3.877054                     5               42.9165
16692128              3.877054                     5               45.3765
16692128              3.877054                     5               47.8365
16692128              3.163347                     5               34.3065
16692128              3.163347                     5               36.7665
16692128              3.163347                     5               39.2265
16692128              3.163347                     5               41.6865
16692128              3.163347                     5               44.1465
16692128              3.163347                     5               46.6065
16692128              3.163347                     5               49.0665
16692128               5.30481                     5               33.0765
16692128               5.30481                     5               35.5365
16692128               5.30481                     5               37.9965
16692128               5.30481                     5               40.4565
16692128               5.30481                     5               42.9165
16692128               5.30481                     5               45.3765
16692128               5.30481                     5               47.8365
16692128              6.018516                     5               34.3065
16692128              6.018516                     5               36.7665
16692096              6.018516                     5               39.2265
16692096              6.018516                     5               41.6865
16692096              6.018516                     5               44.1465
16692096              6.018516                     5               46.6065
16692096              6.018516                     5               49.0665
16692096              8.159979                     5               33.0765
16692096              8.159979                     5               35.5365
16692096              8.159979                     5               37.9965
16692096              8.159979                     5               40.4565
16692096              8.159979                     5               42.9165
16692096              8.159979                     5               45.3765
16692096              8.159979                     5               47.8365
16692096              7.446272                     5               34.3065
16692096              7.446272                     5               36.7665
16692096              7.446272                     5               39.2265
16692096              7.446272                     5               41.6865
16692096              7.446272                     5               44.1465
16692096              7.446272                     5               46.6065
16692096              7.446272                     5               49.0665
16692096              9.587735                     5               33.0765
16692096              9.587735                     5               35.5365
16692096              9.587735                     5               37.9965
16692096              9.587735                     5               40.4565
16692096              9.587735                     5               42.9165
16692096              9.587735                     5               45.3765
16692096              9.587735                     5               47.8365
16692096             10.301441                     5               34.3065
16692096             10.301441                     5               36.7665
16692096             10.301441                     5               39.2265
16692096             10.301441                     5               41.6865
16692096             10.301441                     5               44.1465
16692096             10.301441                     5               46.6065
16692096             10.301441                     5               49.0665
16692096             12.442904                     5               33.0765
16692096             12.442904                     5               35.5365
16692096             12.442904                     5               37.9965
16692096             12.442904                     5               40.4565
16692096             12.442904                     5               42.9165
16692096             12.442904                     5               45.3765
16692096             12.442904                     5               47.8365
16692096             11.729197                     5               34.3065
16692096             11.729197                     5               36.7665
16692096             11.729197                     5               39.2265
16692096             11.729197                     5               41.6865
16692096             11.729197                     5               44.1465
16692096             11.729197                     5               46.6065
16692096             11.729197                     5               49.0665
16692096              13.87066                     5               33.0765
16692096              13.87066                     5               35.5365
16692096              13.87066                     5               37.9965
16692096              13.87066                     5               40.4565
16692096              13.87066                     5               42.9165
16692096              13.87066                     5               45.3765
16692096              13.87066                     5               47.8365
16692096             14.584366                     5               34.3065
16692096             14.584366                     5               36.7665
16692096             14.584366                     5               39.2265
16692096             14.584366                     5               41.6865
16692096             14.584366                     5               44.1465
16692096             14.584366                     5               46.6065
16692096             14.584366                     5               49.0665
16692096             16.725829                     5               33.0765
16692096             16.725829                     5               35.5365
16692096             16.725829                     5               37.9965
16692096             16.725829                     5               40.4565
16692096             16.725829                     5               42.9165
16692096             16.725829                     5               45.3765
16692096             16.725829                     5               47.8365
16692096             16.012122                     5               34.3065
16692096             16.012122                     5               36.7665
16692096             16.012122                     5               39.2265
16692096             16.012122                     5               41.6865
16692096             16.012122                     5               44.1465
16692096             16.012122                     5               46.6065
16692096             16.012122                     5               49.0665
16692096              1.021885                     5               33.0765
16692096              1.021885                     5               35.5365
16692096              1.021885                     5               37.9965
16692096              1.021885                     5               40.4565
16692096              1.021885                     5               42.9165
16692096              1.021885                     5               45.3765
16692096              1.021885                     5               47.8365
16692128              1.165448                     5     0.054000000000002
16692128              3.733319                     5     0.054000000000002
16692128                5.4506                     5    0.0549999999999997
16692128              8.016244                     5     0.054000000000002
16692128              9.733525                     5    0.0549999999999997
16692128             12.299169                     5     0.054000000000002
16692128              14.01645                     5    0.0549999999999997
16692128             16.582094                     5     0.054000000000002
16692096             17.091783                     5                8.5655
16692096             17.091783                     5               12.8265
16692096             17.091783                     5               17.0875
16692096             17.091783                     5                21.348
16692096             17.091783                     5                 9.986
16692096             17.091783                     5               14.2465
16692096             17.091783                     5               18.5075
16692096             17.091783                     5               22.7685
16692096             15.868066                     5                10.696
16692096             15.868066                     5                14.957
16692096             15.868066                     5               19.2175
16692096             15.868066                     5               23.4785
16692096             15.868066                     5                7.8555
16692096             15.868066                     5               12.1165
16692096             15.868066                     5                16.377
16692096             15.868066                     5                20.638
16692096             14.644348                     5                8.5655
16692096             14.644348                     5               12.8265
16692096             14.644348                     5               17.0875
16692096             14.644348                     5                21.348
16692096             13.420631                     5                10.696
16692096             13.420631                     5                14.957
16692096             13.420631                     5               19.2175
16692096             13.420631                     5               23.4785
16692096             14.644348                     5                 9.986
16692096             14.644348                     5               14.2465
16692096             14.644348                     5               18.5075
16692096             14.644348                     5               22.7685
16692096             13.420631                     5                7.8555
16692096             13.420631                     5               12.1165
16692096             13.420631                     5                16.377
16692096             13.420631                     5                20.638
16692096             12.197085                     5                8.5655
16692096             12.197085                     5               12.8265
16692096             12.197085                     5               17.0875
16692096             12.197085                     5                21.348
16692096             10.973368                     5                10.696
16692096             10.973368                     5                14.957
16692096             10.973368                     5               19.2175
16692096             10.973368                     5               23.4785
16692096             12.197085                     5                 9.986
16692096             12.197085                     5               14.2465
16692096             12.197085                     5               18.5075
16692096             12.197085                     5               22.7685
16692096             10.973368                     5                7.8555
16692096             10.973368                     5               12.1165
16692096             10.973368                     5                16.377
16692096             10.973368                     5                20.638
16692096               9.74965                     5                8.5655
16692096               9.74965                     5               12.8265
16692096               9.74965                     5               17.0875
16692096               9.74965                     5                21.348
16692096              8.525933                     5                10.696
16692096              8.525933                     5                14.957
16692096              8.525933                     5               19.2175
16692096              8.525933                     5               23.4785
16692096               9.74965                     5                 9.986
16692096               9.74965                     5               14.2465
16692096               9.74965                     5               18.5075
16692096               9.74965                     5               22.7685
16692096              8.525933                     5                7.8555
16692096              8.525933                     5               12.1165
16692096              8.525933                     5                16.377
16692096              8.525933                     5                20.638
16692096              7.302216                     5                8.5655
16692096              7.302216                     5               12.8265
16692096              7.302216                     5               17.0875
16692096              7.302216                     5                21.348
16692096              6.078498                     5                10.696
16692096              6.078498                     5                14.957
16692096              6.078498                     5               19.2175
16692096              6.078498                     5               23.4785
16692096              7.302216                     5                 9.986
16692096              7.302216                     5               14.2465
16692096              7.302216                     5               18.5075
16692096              7.302216                     5               22.7685
16692096              6.078498                     5                7.8555
16692096              6.078498                     5               12.1165
16692096              6.078498                     5                16.377
16692096              6.078498                     5                20.638
16692096              4.854781                     5                8.5655
16692096              4.854781                     5               12.8265
16692096              4.854781                     5               17.0875
16692096              4.854781                     5                21.348
16692096              3.631235                     5                10.696
16692096              3.631235                     5                14.957
16692096              3.631235                     5               19.2175
16692096              3.631235                     5               23.4785
16692096              4.854781                     5                 9.986
16692096              4.854781                     5               14.2465
16692096              4.854781                     5               18.5075
16692096              4.854781                     5               22.7685
16692096              3.631235                     5                7.8555
16692096              3.631235                     5               12.1165
16692096              3.631235                     5                16.377
16692096              3.631235                     5                20.638
16692096              2.407518                     5                8.5655
16692096              2.407518                     5               12.8265
16692096              2.407518                     5               17.0875
16692096              2.407518                     5                21.348
16692096                1.1838                     5                10.696
16692096                1.1838                     5                14.957
16692096                1.1838                     5               19.2175
16692096                1.1838                     5               23.4785
16692096              2.407518                     5                 9.986
16692096              2.407518                     5               14.2465
16692096              2.407518                     5               18.5075
16692096              2.407518                     5               22.7685
16692096                1.1838                     5                7.8555
16692096                1.1838                     5               12.1165
16692096                1.1838                     5                16.377
16692096                1.1838                     5                20.638
16692128             15.865667                     5                6.7155
16692128              13.42303                     5                6.7155
16692128             10.975766                     5                6.7155
16692128              8.528332                     5                6.7155
16692128              6.080897                     5                6.7155
16692128              3.633634                     5                6.7155
16692128              1.181402                     5                6.7155
16692128              1.815387              0.845318             27.433051
16692128             10.265715              2.175213                  23.5
16692128              4.780506              5.082119             26.255142
16692128              8.819939              8.033445             24.088911
16692128             12.983189              9.670261             26.008015
16692128             15.785965              1.289945             25.995468
16692128              9.048116              3.097138             24.448428
16692128             12.151638              3.726159                  23.5
16692128              2.744175              1.799894                  23.5
16692128              2.436211              0.124273             28.844967
16692128             10.108748              1.529893             30.166752
16692128              0.579611              7.218239             26.042881
16692128              2.176332              7.750996             26.275545
16692128              1.844716              7.658946              27.93966
16692128              6.975227              8.522257             28.320484
16692128              5.025231              9.410817             29.430595
16692128              8.207964              5.751382             28.990767
16692128             12.410394              9.771956             28.038828
16692128             12.569387               1.19822             31.578368
16692128             13.585766              7.473361              31.41388
16692128             16.965624              9.773601                    33
16692128              5.271231              3.270867             28.987632
16692128             15.037423              7.607393             31.800655
16692128             13.246041              2.160795             32.015507
16692128             12.734116              9.950333             32.094212
16692128              0.652506              1.736225             31.233761
16692128             10.229797              2.168549             30.452694
16692128             11.756775              3.610894              31.69287
16692096             10.653269               9.37256               24.9504
16692096             11.824258              9.509921             24.301724
16692096             10.110648              1.989658             25.877846
16692096             12.838101              3.330351                  23.5
16692096              4.658207              7.586758             24.858292
16692096              8.921618              1.161241              23.87079
16692096             13.147603              1.090589             25.047104
16692096             14.925604              9.251328                  23.5
16692096              0.966847              6.065201             24.888271
16692096             13.461191              0.430095             23.661096
16692096             11.870944               1.85917             24.973129
16692096              5.410416              4.821143             26.612112
16692096               1.40992              8.887051             27.062755
16692096             10.030249              7.842164              23.55505
16692096               7.33445               2.56094             23.903697
16692096             15.649322              2.731507             26.825319
16692096              6.890618              7.427087             26.205949
16692096              5.444594              1.284358             28.208358
16692096              1.944675              2.677305             26.739368
16692096              6.633049               9.79068             25.538603
16692096             17.022543              9.745845              25.95429
16692096              9.992906              8.847392              27.17788
16692096              3.698004              0.315331             30.801015
16692096             15.151794               4.70353             29.750006
16692096              8.652625              1.416086             32.354461
16692096              2.679485              9.275967             32.649448
16692096             16.179431               9.60456                    33
16692096              0.327467              0.275832             31.653932
16692096             10.501142              0.971758                    33
16692096              0.232575              9.838401                    33
16692096             15.102823              4.648194             30.374453
16692096             14.664028              4.760198              27.43653
16692096              3.514021               8.56186             31.361616
300
Atoms. Timestep: 10
16692128      1.73558671041499                     5      34.3064858193153
16692128      1.73558671041499                     5      36.7664858193153
16692128      1.73558671041499                     5      39.2264858193153
16692128      1.73558671041499                     5      41.6864858193153
16692128      1.73558671041499                     5      44.1464858193153
16692128      1.73558671041499                     5      46.6064858193153
16692128      1.73558671041499                     5      49.0664858193153
16692128      3.87704971041499                     5      33.0764858193153
16692128      3.87704971041499                     5      35.5364858193153
16692128      3.87704971041499                     5      37.9964858193153
16692128      3.87704971041499                     5      40.4564858193153
16692128      3.87704971041499                     5      42.9164858193153
16692128      3.87704971041499                     5      45.3764858193153
16692128      3.87704971041499                     5      47.8364858193153
16692128      3.16334271041499                     5      34.3064858193153
16692128      3.16334271041499                     5      36.7664858193153
16692128      3.16334271041499                     5      39.2264858193153
16692128      3.16334271041499                     5      41.6864858193153
16692128      3.16334271041499                     5      44.1464858193153
16692128      3.16334271041499                     5      46.6064858193153
16692128      3.16334271041499                     5      49.0664858193153
16692128      5.30480571041499                     5      33.0764858193153
16692128      5.30480571041499                     5      35.5364858193153
16692128      5.30480571041499                     5      37.9964858193153
16692128      5.30480571041499                     5      40.4564858193153
16692128      5.30480571041499                     5      42.9164858193153
16692128      5.30480571041499                     5      45.3764858193153
16692128      5.30480571041499                     5      47.8364858193153
16692128      6.01851171041499                     5      34.3064858193153
16692128      6.01851171041499                     5      36.7664858193153
16692096      6.01851171041499                     5      39.2264858193153
16692096      6.01851171041499                     5      41.6864858193153
16692096      6.01851171041499                     5      44.1464858193153
16692096      6.01851171041499                     5      46.6064858193153
16692096      6.01851171041499                     5      49.0664858193153
16692096      8.15997471041499                     5      33.0764858193153
16692096      8.15997471041499                     5      35.5364858193153
16692096      8.15997471041499                     5      37.9964858193153
16692096      8.15997471041499                     5      40.4564858193153
16692096      8.15997471041499                     5      42.9164858193153
16692096      8.15997471041499                     5      45.3764858193153
16692096      8.15997471041499                     5      47.8364858193153
16692096      7.44626771041499                     5      34.3064858193153
16692096      7.44626771041499                     5      36.7664858193153
16692096      7.44626771041499                     5      39.2264858193153
16692096      7.44626771041499                     5      41.6864858193153
16692096      7.44626771041499                     5      44.1464858193153
16692096      7.44626771041499                     5      46.6064858193153
16692096      7.44626771041499                     5      49.0664858193153
16692096      9.58773071041499                     5      33.0764858193153
16692096      9.58773071041499                     5      35.5364858193153
16692096      9.58773071041499                     5      37.9964858193153
16692096      9.58773071041499                     5      40.4564858193153
16692096      9.58773071041499                     5      42.9164858193153
16692096      9.58773071041499                     5      45.3764858193153
16692096      9.58773071041499                     5      47.8364858193153
16692096       10.301436710415                     5      34.3064858193153
16692096       10.301436710415                     5      36.7664858193153
16692096       10.301436710415                     5      39.2264858193153
16692096       10.301436710415                     5      41.6864858193153
16692096       10.301436710415                     5      44.1464858193153
16692096       10.301436710415                     5      46.6064858193153
16692096       10.301436710415                     5      49.0664858193153
16692096       12.442899710415                     5      33.0764858193153
16692096       12.442899710415                     5      35.5364858193153
16692096       12.442899710415                     5      37.9964858193153
16692096       12.442899710415                     5      40.4564858193153
16692096       12.442899710415                     5      42.9164858193153
16692096       12.442899710415                     5      45.3764858193153
16692096       12.442899710415                     5      47.8364858193153
16692096       11.729192710415                     5      34.3064858193153
16692096       11.729192710415                     5      36.7664858193153
16692096       11.729192710415                     5      39.2264858193153
16692096       11.729192710415                     5      41.6864858193153
16692096       11.729192710415                     5      44.1464858193153
16692096       11.729192710415                     5      46.6064858193153
16692096       11.729192710415                     5      49.0664858193153
16692096       13.870655710415                     5      33.0764858193153
16692096       13.870655710415                     5      35.5364858193153
16692096       13.870655710415                     5      37.9964858193153
16692096       13.870655710415                     5      40.4564858193153
16692096       13.870655710415                     5      42.9164858193153
16692096       13.870655710415                     5      45.3764858193153
16692096       13.870655710415                     5      47.8364858193153
16692096       14.584361710415                     5      34.3064858193153
16692096       14.584361710415                     5      36.7664858193153
16692096       14.584361710415                     5      39.2264858193153
16692096       14.584361710415                     5      41.6864858193153
16692096       14.584361710415                     5      44.1464858193153
16692096       14.584361710415                     5      46.6064858193153
16692096       14.584361710415                     5      49.0664858193153
16692096       16.725824710415                     5      33.0764858193153
16692096       16.725824710415                     5      35.5364858193153
16692096       16.725824710415                     5      37.9964858193153
16692096       16.725824710415                     5      40.4564858193153
16692096       16.725824710415                     5      42.9164858193153
16692096       16.725824710415                     5      45.3764858193153
16692096       16.725824710415                     5      47.8364858193153
16692096       16.012117710415                     5      34.3064858193153