search structure

300 atoms
2  atom types

0   17.131700 xlo xhi
0   10.000000 ylo yhi
0   50.000000 zlo zhi

Atoms

1 2 1.735591 5.000000 34.306500
2 2 1.735591 5.000000 36.766500
3 2 1.735591 5.000000 39.226500
4 2 1.735591 5.000000 41.686500
5 2 1.735591 5.000000 44.146500
6 2 1.735591 5.000000 46.606500
7 2 1.735591 5.000000 49.066500
8 2 3.877054 5.000000 33.076500
9 2 3.877054 5.000000 35.536500
10 2 3.877054 5.000000 37.996500
11 2 3.877054 5.000000 40.456500
12 2 3.877054 5.000000 42.916500
13 2 3.877054 5.000000 45.376500
14 2 3.877054 5.000000 47.836500
15 2 3.163347 5.000000 34.306500
16 2 3.163347 5.000000 36.766500
17 2 3.163347 5.000000 39.226500
18 2 3.163347 5.000000 41.686500
19 2 3.163347 5.000000 44.146500
20 2 3.163347 5.000000 46.606500
21 2 3.163347 5.000000 49.066500
22 2 5.304810 5.000000 33.076500
23 2 5.304810 5.000000 35.536500
24 2 5.304810 5.000000 37.996500
25 2 5.304810 5.000000 40.456500
26 2 5.304810 5.000000 42.916500
27 2 5.304810 5.000000 45.376500
28 2 5.304810 5.000000 47.836500
29 2 6.018516 5.000000 34.306500
30 2 6.018516 5.000000 36.766500
31 1 6.018516 5.000000 39.226500
32 1 6.018516 5.000000 41.686500
33 1 6.018516 5.000000 44.146500
34 1 6.018516 5.000000 46.606500
35 1 6.018516 5.000000 49.066500
36 1 8.159979 5.000000 33.076500
37 1 8.159979 5.000000 35.536500
38 1 8.159979 5.000000 37.996500
39 1 8.159979 5.000000 40.456500
40 1 8.159979 5.000000 42.916500
41 1 8.159979 5.000000 45.376500
42 1 8.159979 5.000000 47.836500
43 1 7.446272 5.000000 34.306500
44 1 7.446272 5.000000 36.766500
45 1 7.446272 5.000000 39.226500
46 1 7.446272 5.000000 41.686500
47 1 7.446272 5.000000 44.146500
48 1 7.446272 5.000000 46.606500
49 1 7.446272 5.000000 49.066500
50 1 9.587735 5.000000 33.076500
51 1 9.587735 5.000000 35.536500
52 1 9.587735 5.000000 37.996500
53 1 9.587735 5.000000 40.456500
54 1 9.587735 5.000000 42.916500
55 1 9.587735 5.000000 45.376500
56 1 9.587735 5.000000 47.836500
57 1 10.301441 5.000000 34.306500
58 1 10.301441 5.000000 36.766500
59 1 10.301441 5.000000 39.226500
60 1 10.301441 5.000000 41.686500
61 1 10.301441 5.000000 44.146500
62 1 10.301441 5.000000 46.606500
63 1 10.301441 5.000000 49.066500
64 1 12.442904 5.000000 33.076500
65 1 12.442904 5.000000 35.536500
66 1 12.442904 5.000000 37.996500
67 1 12.442904 5.000000 40.456500
68 1 12.442904 5.000000 42.916500
69 1 12.442904 5.000000 45.376500
70 1 12.442904 5.000000 47.836500
71 1 11.729197 5.000000 34.306500
72 1 11.729197 5.000000 36.766500
73 1 11.729197 5.000000 39.226500
74 1 11.729197 5.000000 41.686500
75 1 11.729197 5.000000 44.146500
76 1 11.729197 5.000000 46.606500
77 1 11.729197 5.000000 49.066500
78 1 13.870660 5.000000 33.076500
79 1 13.870660 5.000000 35.536500
80 1 13.870660 5.000000 37.996500
81 1 13.870660 5.000000 40.456500
82 1 13.870660 5.000000 42.916500
83 1 13.870660 5.000000 45.376500
84 1 13.870660 5.000000 47.836500
85 1 14.584366 5.000000 34.306500
86 1 14.584366 5.000000 36.766500
87 1 14.584366 5.000000 39.226500
88 1 14.584366 5.000000 41.686500
89 1 14.584366 5.000000 44.146500
90 1 14.584366 5.000000 46.606500
91 1 14.584366 5.000000 49.066500
92 1 16.725829 5.000000 33.076500
93 1 16.725829 5.000000 35.536500
94 1 16.725829 5.000000 37.996500
95 1 16.725829 5.000000 40.456500
96 1 16.725829 5.000000 42.916500
97 1 16.725829 5.000000 45.376500
98 1 16.725829 5.000000 47.836500
99 1 16.012122 5.000000 34.306500
100 1 16.012122 5.000000 36.766500
101 1 16.012122 5.000000 39.226500
102 1 16.012122 5.000000 41.686500
103 1 16.012122 5.000000 44.146500
104 1 16.012122 5.000000 46.606500
105 1 16.012122 5.000000 49.066500
106 1 1.021885 5.000000 33.076500
107 1 1.021885 5.000000 35.536500
108 1 1.021885 5.000000 37.996500
109 1 1.021885 5.000000 40.456500
110 1 1.021885 5.000000 42.916500
111 1 1.021885 5.000000 45.376500
112 1 1.021885 5.000000 47.836500
113 2 1.165448 5.000000 50.054000
114 2 3.733319 5.000000 50.054000
115 2 5.450600 5.000000 50.055000
116 2 8.016244 5.000000 50.054000
117 2 9.733525 5.000000 50.055000
118 2 12.299169 5.000000 50.054000
119 2 14.016450 5.000000 50.055000
120 2 16.582094 5.000000 50.054000
121 1 -0.039917 5.000000 8.565500
122 1 -0.039917 5.000000 12.826500
123 1 -0.039917 5.000000 17.087500
124 1 -0.039917 5.000000 21.348000
125 1 -0.039917 5.000000 9.986000
126 1 -0.039917 5.000000 14.246500
127 1 -0.039917 5.000000 18.507500
128 1 -0.039917 5.000000 22.768500
129 1 15.868066 5.000000 10.696000
130 1 15.868066 5.000000 14.957000
131 1 15.868066 5.000000 19.217500
132 1 15.868066 5.000000 23.478500
133 1 15.868066 5.000000 7.855500
134 1 15.868066 5.000000 12.116500
135 1 15.868066 5.000000 16.377000
136 1 15.868066 5.000000 20.638000
137 1 14.644348 5.000000 8.565500
138 1 14.644348 5.000000 12.826500
139 1 14.644348 5.000000 17.087500
140 1 14.644348 5.000000 21.348000
141 1 13.420631 5.000000 10.696000
142 1 13.420631 5.000000 14.957000
143 1 13.420631 5.000000 19.217500
144 1 13.420631 5.000000 23.478500
145 1 14.644348 5.000000 9.986000
146 1 14.644348 5.000000 14.246500
147 1 14.644348 5.000000 18.507500
148 1 14.644348 5.000000 22.768500
149 1 13.420631 5.000000 7.855500
150 1 13.420631 5.000000 12.116500
151 1 13.420631 5.000000 16.377000
152 1 13.420631 5.000000 20.638000
153 1 12.197085 5.000000 8.565500
154 1 12.197085 5.000000 12.826500
155 1 12.197085 5.000000 17.087500
156 1 12.197085 5.000000 21.348000
157 1 10.973368 5.000000 10.696000
158 1 10.973368 5.000000 14.957000
159 1 10.973368 5.000000 19.217500
160 1 10.973368 5.000000 23.478500
161 1 12.197085 5.000000 9.986000
162 1 12.197085 5.000000 14.246500
163 1 12.197085 5.000000 18.507500
164 1 12.197085 5.000000 22.768500
165 1 10.973368 5.000000 7.855500
166 1 10.973368 5.000000 12.116500
167 1 10.973368 5.000000 16.377000
168 1 10.973368 5.000000 20.638000
169 1 9.749650 5.000000 8.565500
170 1 9.749650 5.000000 12.826500
171 1 9.749650 5.000000 17.087500
172 1 9.749650 5.000000 21.348000
173 1 8.525933 5.000000 10.696000
174 1 8.525933 5.000000 14.957000
175 1 8.525933 5.000000 19.217500
176 1 8.525933 5.000000 23.478500
177 1 9.749650 5.000000 9.986000
178 1 9.749650 5.000000 14.246500
179 1 9.749650 5.000000 18.507500
180 1 9.749650 5.000000 22.768500
181 1 8.525933 5.000000 7.855500
182 1 8.525933 5.000000 12.116500
183 1 8.525933 5.000000 16.377000
184 1 8.525933 5.000000 20.638000
185 1 7.302216 5.000000 8.565500
186 1 7.302216 5.000000 12.826500
187 1 7.302216 5.000000 17.087500
188 1 7.302216 5.000000 21.348000
189 1 6.078498 5.000000 10.696000
190 1 6.078498 5.000000 14.957000
191 1 6.078498 5.000000 19.217500
192 1 6.078498 5.000000 23.478500
193 1 7.302216 5.000000 9.986000
194 1 7.302216 5.000000 14.246500
195 1 7.302216 5.000000 18.507500
196 1 7.302216 5.000000 22.768500
197 1 6.078498 5.000000 7.855500
198 1 6.078498 5.000000 12.116500
199 1 6.078498 5.000000 16.377000
200 1 6.078498 5.000000 20.638000
201 1 4.854781 5.000000 8.565500
202 1 4.854781 5.000000 12.826500
203 1 4.854781 5.000000 17.087500
204 1 4.854781 5.000000 21.348000
205 1 3.631235 5.000000 10.696000
206 1 3.631235 5.000000 14.957000
207 1 3.631235 5.000000 19.217500
208 1 3.631235 5.000000 23.478500
209 1 4.854781 5.000000 9.986000
210 1 4.854781 5.000000 14.246500
211 1 4.854781 5.000000 18.507500
212 1 4.854781 5.000000 22.768500
213 1 3.631235 5.000000 7.855500
214 1 3.631235 5.000000 12.116500
215 1 3.631235 5.000000 16.377000
216 1 3.631235 5.000000 20.638000
217 1 2.407518 5.000000 8.565500
218 1 2.407518 5.000000 12.826500
219 1 2.407518 5.000000 17.087500
220 1 2.407518 5.000000 21.348000
221 1 1.183800 5.000000 10.696000
222 1 1.183800 5.000000 14.957000
223 1 1.183800 5.000000 19.217500
224 1 1.183800 5.000000 23.478500
225 1 2.407518 5.000000 9.986000
226 1 2.407518 5.000000 14.246500
227 1 2.407518 5.000000 18.507500
228 1 2.407518 5.000000 22.768500
229 1 1.183800 5.000000 7.855500
230 1 1.183800 5.000000 12.116500
231 1 1.183800 5.000000 16.377000
232 1 1.183800 5.000000 20.638000
233 2 15.865667 5.000000 6.715500
234 2 13.423030 5.000000 6.715500
235 2 10.975766 5.000000 6.715500
236 2 8.528332 5.000000 6.715500
237 2 6.080897 5.000000 6.715500
238 2 3.633634 5.000000 6.715500
239 2 1.181402 5.000000 6.715500
240 2 1.815387 0.845318 27.433051
241 2 10.265715 2.175213 23.500000
242 2 4.780506 5.082119 26.255142
243 2 8.819939 8.033445 24.088911
244 2 12.983189 9.670261 26.008015
245 2 15.785965 1.289945 25.995468
246 2 9.048116 3.097138 24.448428
247 2 12.151638 3.726159 23.500000
248 2 2.744175 1.799894 23.500000
249 2 2.436211 0.124273 28.844967
250 2 10.108748 1.529893 30.166752
251 2 0.579611 7.218239 26.042881
252 2 2.176332 7.750996 26.275545
253 2 1.844716 7.658946 27.939660
254 2 6.975227 8.522257 28.320484
255 2 5.025231 9.410817 29.430595
256 2 8.207964 5.751382 28.990767
257 2 12.410394 9.771956 28.038828
258 2 12.569387 1.198220 31.578368
259 2 13.585766 7.473361 31.413880
260 2 16.965624 9.773601 33.000000
261 2 5.271231 3.270867 28.987632
262 2 15.037423 7.607393 31.800655
263 2 13.246041 2.160795 32.015507
264 2 12.734116 9.950333 32.094212
265 2 0.652506 1.736225 31.233761
266 2 10.229797 2.168549 30.452694
267 2 11.756775 3.610894 31.692870
268 1 10.653269 9.372560 24.950400
269 1 11.824258 9.509921 24.301724
270 1 10.110648 1.989658 25.877846
271 1 12.838101 3.330351 23.500000
272 1 4.658207 7.586758 24.858292
273 1 8.921618 1.161241 23.870790
274 1 13.147603 1.090589 25.047104
275 1 14.925604 9.251328 23.500000
276 1 0.966847 6.065201 24.888271
277 1 13.461191 0.430095 23.661096
278 1 11.870944 1.859170 24.973129
279 1 5.410416 4.821143 26.612112
280 1 1.409920 8.887051 27.062755
281 1 10.030249 7.842164 23.555050
282 1 7.334450 2.560940 23.903697
283 1 15.649322 2.731507 26.825319
284 1 6.890618 7.427087 26.205949
285 1 5.444594 1.284358 28.208358
286 1 1.944675 2.677305 26.739368
287 1 6.633049 9.790680 25.538603
288 1 17.022543 9.745845 25.954290
289 1 9.992906 8.847392 27.177880
290 1 3.698004 0.315331 30.801015
291 1 15.151794 4.703530 29.750006
292 1 8.652625 1.416086 32.354461
293 1 2.679485 9.275967 32.649448
294 1 16.179431 9.604560 33.000000
295 1 0.327467 0.275832 31.653932
296 1 10.501142 0.971758 33.000000
297 1 0.232575 9.838401 33.000000
298 1 15.102823 4.648194 30.374453
299 1 14.664028 4.760198 27.436530
300 1 3.514021 8.561860 31.361616
