300
Atoms. Timestep: 0
157889440             16.494556                     5              35.11052
157889440             16.494556                     5              37.57052
157889440             16.494556                     5              40.03052
157889440             16.494556                     5              42.49052
157889440             16.494556                     5              44.95052
157889440             16.494556                     5              47.41052
157889440             16.494556                     5              49.87052
157889440              1.504318                     5              33.88052
157889440              1.504318                     5              36.34052
157889440              1.504318                     5              38.80052
157889440              1.504318                     5              41.26052
157889440              1.504318                     5              43.72052
157889440              1.504318                     5              46.18052
157889440              1.504318                     5              48.64052
157889440              0.790612                     5              35.11052
157889440              0.790612                     5              37.57052
157889440              0.790612                     5              40.03052
157889440              0.790612                     5              42.49052
157889440              0.790612                     5              44.95052
157889440              0.790612                     5              47.41052
157889440              0.790612                     5              49.87052
157889440              2.932074                     5              33.88052
157889440              2.932074                     5              36.34052
157889440              2.932074                     5              38.80052
157889440              2.932074                     5              41.26052
157889440              2.932074                     5              43.72052
157889440              2.932074                     5              46.18052
157889440              2.932074                     5              48.64052
157889440              3.645781                     5              35.11052
157889440              3.645781                     5              37.57052
157889408              3.645781                     5              40.03052
157889408              3.645781                     5              42.49052
157889408              3.645781                     5              44.95052
157889408              3.645781                     5              47.41052
157889408              3.645781                     5              49.87052
157889408              5.787243                     5              33.88052
157889408              5.787243                     5              36.34052
157889408              5.787243                     5              38.80052
157889408              5.787243                     5              41.26052
157889408              5.787243                     5              43.72052
157889408              5.787243                     5              46.18052
157889408              5.787243                     5              48.64052
157889408              5.073537                     5              35.11052
157889408              5.073537                     5              37.57052
157889408              5.073537                     5              40.03052
157889408              5.073537                     5              42.49052
157889408              5.073537                     5              44.95052
157889408              5.073537                     5              47.41052
157889408              5.073537                     5              49.87052
157889408              7.214999                     5              33.88052
157889408              7.214999                     5              36.34052
157889408              7.214999                     5              38.80052
157889408              7.214999                     5              41.26052
157889408              7.214999                     5              43.72052
157889408              7.214999                     5              46.18052
157889408              7.214999                     5              48.64052
157889408              7.928706                     5              35.11052
157889408              7.928706                     5              37.57052
157889408              7.928706                     5              40.03052
157889408              7.928706                     5              42.49052
157889408              7.928706                     5              44.95052
157889408              7.928706                     5              47.41052
157889408              7.928706                     5              49.87052
157889408             10.070168                     5              33.88052
157889408             10.070168                     5              36.34052
157889408             10.070168                     5              38.80052
157889408             10.070168                     5              41.26052
157889408             10.070168                     5              43.72052
157889408             10.070168                     5              46.18052
157889408             10.070168                     5              48.64052
157889408              9.356462                     5              35.11052
157889408              9.356462                     5              37.57052
157889408              9.356462                     5              40.03052
157889408              9.356462                     5              42.49052
157889408              9.356462                     5              44.95052
157889408              9.356462                     5              47.41052
157889408              9.356462                     5              49.87052
157889408             11.497924                     5              33.88052
157889408             11.497924                     5              36.34052
157889408             11.497924                     5              38.80052
157889408             11.497924                     5              41.26052
157889408             11.497924                     5              43.72052
157889408             11.497924                     5              46.18052
157889408             11.497924                     5              48.64052
157889408             12.211631                     5              35.11052
157889408             12.211631                     5              37.57052
157889408             12.211631                     5              40.03052
157889408             12.211631                     5              42.49052
157889408             12.211631                     5              44.95052
157889408             12.211631                     5              47.41052
157889408             12.211631                     5              49.87052
157889408             14.353093                     5              33.88052
157889408             14.353093                     5              36.34052
157889408             14.353093                     5              38.80052
157889408             14.353093                     5              41.26052
157889408             14.353093                     5              43.72052
157889408             14.353093                     5              46.18052
157889408             14.353093                     5              48.64052
157889408             13.639387                     5              35.11052
157889408             13.639387                     5              37.57052
157889408             13.639387                     5              40.03052
157889408             13.639387                     5              42.49052
157889408             13.639387                     5              44.95052
157889408             13.639387                     5              47.41052
157889408             13.639387                     5              49.87052
157889408             15.780849                     5              33.88052
157889408             15.780849                     5              36.34052
157889408             15.780849                     5              38.80052
157889408             15.780849                     5              41.26052
157889408             15.780849                     5              43.72052
157889408             15.780849                     5              46.18052
157889408             15.780849                     5              48.64052
157889440             15.924413                     5     0.858020000000003
157889440              1.360583                     5     0.858020000000003
157889440              3.077865                     5     0.859020000000001
157889440              5.643508                     5     0.858020000000003
157889440               7.36079                     5     0.859020000000001
157889440              9.926433                     5     0.858020000000003
157889440             11.643715                     5     0.859020000000001
157889440             14.209358                     5     0.858020000000003
157889408             17.091783                     5                8.5655
157889408             17.091783                     5               12.8265
157889408             17.091783                     5               17.0875
157889408             17.091783                     5                21.348
157889408             17.091783                     5                 9.986
157889408             17.091783                     5               14.2465
157889408             17.091783                     5               18.5075
157889408             17.091783                     5               22.7685
157889408             15.868066                     5                10.696
157889408             15.868066                     5                14.957
157889408             15.868066                     5               19.2175
157889408             15.868066                     5               23.4785
157889408             15.868066                     5                7.8555
157889408             15.868066                     5               12.1165
157889408             15.868066                     5                16.377
157889408             15.868066                     5                20.638
157889408             14.644348                     5                8.5655
157889408             14.644348                     5               12.8265
157889408             14.644348                     5               17.0875
157889408             14.644348                     5                21.348
157889408             13.420631                     5                10.696
157889408             13.420631                     5                14.957
157889408             13.420631                     5               19.2175
157889408             13.420631                     5               23.4785
157889408             14.644348                     5                 9.986
157889408             14.644348                     5               14.2465
157889408             14.644348                     5               18.5075
157889408             14.644348                     5               22.7685
157889408             13.420631                     5                7.8555
157889408             13.420631                     5               12.1165
157889408             13.420631                     5                16.377
157889408             13.420631                     5                20.638
157889408             12.197085                     5                8.5655
157889408             12.197085                     5               12.8265
157889408             12.197085                     5               17.0875
157889408             12.197085                     5                21.348
157889408             10.973368                     5                10.696
157889408             10.973368                     5                14.957
157889408             10.973368                     5               19.2175
157889408             10.973368                     5               23.4785
157889408             12.197085                     5                 9.986
157889408             12.197085                     5               14.2465
157889408             12.197085                     5               18.5075
157889408             12.197085                     5               22.7685
157889408             10.973368                     5                7.8555
157889408             10.973368                     5               12.1165
157889408             10.973368                     5                16.377
157889408             10.973368                     5                20.638
157889408               9.74965                     5                8.5655
157889408               9.74965                     5               12.8265
157889408               9.74965                     5               17.0875
157889408               9.74965                     5                21.348
157889408              8.525933                     5                10.696
157889408              8.525933                     5                14.957
157889408              8.525933                     5               19.2175
157889408              8.525933                     5               23.4785
157889408               9.74965                     5                 9.986
157889408               9.74965                     5               14.2465
157889408               9.74965                     5               18.5075
157889408               9.74965                     5               22.7685
157889408              8.525933                     5                7.8555
157889408              8.525933                     5               12.1165
157889408              8.525933                     5                16.377
157889408              8.525933                     5                20.638
157889408              7.302216                     5                8.5655
157889408              7.302216                     5               12.8265
157889408              7.302216                     5               17.0875
157889408              7.302216                     5                21.348
157889408              6.078498                     5                10.696
157889408              6.078498                     5                14.957
157889408              6.078498                     5               19.2175
157889408              6.078498                     5               23.4785
157889408              7.302216                     5                 9.986
157889408              7.302216                     5               14.2465
157889408              7.302216                     5               18.5075
157889408              7.302216                     5               22.7685
157889408              6.078498                     5                7.8555
157889408              6.078498                     5               12.1165
157889408              6.078498                     5                16.377
157889408              6.078498                     5                20.638
157889408              4.854781                     5                8.5655
157889408              4.854781                     5               12.8265
157889408              4.854781                     5               17.0875
157889408              4.854781                     5                21.348
157889408              3.631235                     5                10.696
157889408              3.631235                     5                14.957
157889408              3.631235                     5               19.2175
157889408              3.631235                     5               23.4785
157889408              4.854781                     5                 9.986
157889408              4.854781                     5               14.2465
157889408              4.854781                     5               18.5075
157889408              4.854781                     5               22.7685
157889408              3.631235                     5                7.8555
157889408              3.631235                     5               12.1165
157889408              3.631235                     5                16.377
157889408              3.631235                     5                20.638
157889408              2.407518                     5                8.5655
157889408              2.407518                     5               12.8265
157889408              2.407518                     5               17.0875
157889408              2.407518                     5                21.348
157889408                1.1838                     5                10.696
157889408                1.1838                     5                14.957
157889408                1.1838                     5               19.2175
157889408                1.1838                     5               23.4785
157889408              2.407518                     5                 9.986
157889408              2.407518                     5               14.2465
157889408              2.407518                     5               18.5075
157889408              2.407518                     5               22.7685
157889408                1.1838                     5                7.8555
157889408                1.1838                     5               12.1165
157889408                1.1838                     5                16.377
157889408                1.1838                     5                20.638
157889440             15.865667                     5                6.7155
157889440              13.42303                     5                6.7155
157889440             10.975766                     5                6.7155
157889440              8.528332                     5                6.7155
157889440              6.080897                     5                6.7155
157889440              3.633634                     5                6.7155
157889440              1.181402                     5                6.7155
157889440              3.571867              2.977764             25.668022
157889440              4.358878              0.821292             24.985984
157889440             10.371472              2.829462              25.52367
157889440             16.167654              7.715233             24.999407
157889440             13.504894              6.044122             24.320365
157889440              0.930243              5.467768             27.501727
157889440              9.176096              7.476153             24.634565
157889440              8.846494              8.246274             27.656919
157889440              9.393359              4.507621             28.064053
157889440              10.04868              7.020732             29.904107
157889440              6.435566              8.879533             31.861026
157889440             16.788932              1.669775             28.364873
157889440              1.625383              8.450892             31.448753
157889440             10.717556              3.206834             30.730063
157889440             12.180699              5.610834              31.60921
157889440              4.927029              9.897584             31.595254
157889440              9.782314              5.405291             33.755824
157889440              1.904049              2.789596             31.930889
157889440              1.308363               3.42869             32.862354
157889440              4.652563              2.559756             31.292827
157889440              0.176798              5.050751              33.80402
157889440             12.688539              7.200493             30.609467
157889440              10.96544               3.68394              33.80402
157889440              7.644204              0.900718              33.80402
157889440             12.316714              6.528658             33.571535
157889440              3.156006              1.561388              33.80402
157889440             16.291236              0.278292             31.540243
157889440              2.304598              5.846147              30.62359
157889408              1.995747              4.474466             24.528931
157889408              3.156516              5.740519             27.014341
157889408              6.864751              3.402376             24.599624
157889408              16.51738              2.036654             25.783042
157889408              7.712205              9.692956             27.123602
157889408              2.789567              0.705174             27.461343
157889408              2.793549              3.483659             26.959773
157889408             15.809034              4.013898                  23.5
157889408              4.446808               7.78292             23.513431
157889408             13.323727              9.827527             24.859816
157889408             16.185025              8.660326                  23.5
157889408             16.551551              6.466113             28.379629
157889408              2.233307              5.395384             26.304805
157889408              6.883351              7.325195              29.14503
157889408              2.913018              3.092995             30.369531
157889408              5.240481              0.539763             29.364445
157889408             16.292013              8.899968             27.926055
157889408              1.198489               6.77133             27.672307
157889408               7.50141              0.415472             28.418185
157889408             10.140297              0.028098              28.71037
157889408              7.417772              0.438642             28.576959
157889408             13.744551              9.665745             25.337007
157889408              0.965637               3.57067             31.705482
157889408             11.608408              8.057217             30.803507
157889408              9.215938              7.157067             32.235369
157889408              3.839033              1.042544             28.707319
157889408              5.904422              9.785937              33.80402
157889408             16.537258              3.621996             29.486461
157889408             12.833548              1.815542             31.737545
157889408             16.608097              2.086705             32.484887
157889408             15.038924              3.008767             29.056377
157889408             10.664645              3.362237             30.830393
157889408              8.786019              7.213111             30.504732
300
Atoms. Timestep: 9
157889440      16.4922080099257                     5      35.1144583764019
157889440      16.4922080099257                     5      37.5744583764019
157889440      16.4922080099257                     5      40.0344583764019
157889440      16.4922080099257                     5      42.4944583764019
157889440      16.4922080099257                     5      44.9544583764019
157889440      16.4922080099257                     5      47.4144583764019
157889440      16.4922080099257                     5      49.8744583764019
157889440      1.50197000992573                     5      33.8844583764019
157889440      1.50197000992573                     5      36.3444583764019
157889440      1.50197000992573                     5      38.8044583764019
157889440      1.50197000992573                     5      41.2644583764019
157889440      1.50197000992573                     5      43.7244583764019
157889440      1.50197000992573                     5      46.1844583764019
157889440      1.50197000992573                     5      48.6444583764019
157889440     0.788264009925731                     5      35.1144583764019
157889440     0.788264009925731                     5      37.5744583764019
157889440     0.788264009925731                     5      40.0344583764019
157889440     0.788264009925731                     5      42.4944583764019
157889440     0.788264009925731                     5      44.9544583764019
157889440     0.788264009925731                     5      47.4144583764019
157889440     0.788264009925731                     5      49.8744583764019
157889440      2.92972600992573                     5      33.8844583764019
157889440      2.92972600992573                     5      36.3444583764019
157889440      2.92972600992573                     5      38.8044583764019
157889440      2.92972600992573                     5      41.2644583764019
157889440      2.92972600992573                     5      43.7244583764019
157889440      2.92972600992573                     5      46.1844583764019
157889440      2.92972600992573                     5      48.6444583764019
157889440      3.64343300992573                     5      35.1144583764019
157889440      3.64343300992573                     5      37.5744583764019
157889408      3.64343300992573                     5      40.0344583764019
157889408      3.64343300992573                     5      42.4944583764019
157889408      3.64343300992573                     5      44.9544583764019
157889408      3.64343300992573                     5      47.4144583764019
157889408      3.64343300992573                     5      49.8744583764019
157889408      5.78489500992573                     5      33.8844583764019
157889408      5.78489500992573                     5      36.3444583764019
157889408      5.78489500992573                     5      38.8044583764019
157889408      5.78489500992573                     5      41.2644583764019
157889408      5.78489500992573                     5      43.7244583764019
157889408      5.78489500992573                     5      46.1844583764019
157889408      5.78489500992573                     5      48.6444583764019
157889408      5.07118900992573                     5      35.1144583764019
157889408      5.07118900992573                     5      37.5744583764019
157889408      5.07118900992573                     5      40.0344583764019
157889408      5.07118900992573                     5      42.4944583764019
157889408      5.07118900992573                     5      44.9544583764019
157889408      5.07118900992573                     5      47.4144583764019
157889408      5.07118900992573                     5      49.8744583764019
157889408      7.21265100992573                     5      33.8844583764019
157889408      7.21265100992573                     5      36.3444583764019
157889408      7.21265100992573                     5      38.8044583764019
157889408      7.21265100992573                     5      41.2644583764019
157889408      7.21265100992573                     5      43.7244583764019
157889408      7.21265100992573                     5      46.1844583764019
157889408      7.21265100992573                     5      48.6444583764019
157889408      7.92635800992573                     5      35.1144583764019
157889408      7.92635800992573                     5      37.5744583764019
157889408      7.92635800992573                     5      40.0344583764019
157889408      7.92635800992573                     5      42.4944583764019
157889408      7.92635800992573                     5      44.9544583764019
157889408      7.92635800992573                     5      47.4144583764019
157889408      7.92635800992573                     5      49.8744583764019
157889408      10.0678200099257                     5      33.8844583764019
157889408      10.0678200099257                     5      36.3444583764019
157889408      10.0678200099257                     5      38.8044583764019
157889408      10.0678200099257                     5      41.2644583764019
157889408      10.0678200099257                     5      43.7244583764019
157889408      10.0678200099257                     5      46.1844583764019
157889408      10.0678200099257                     5      48.6444583764019
157889408      9.35411400992573                     5      35.1144583764019
157889408      9.35411400992573                     5      37.5744583764019
157889408      9.35411400992573                     5      40.0344583764019
157889408      9.35411400992573                     5      42.4944583764019
157889408      9.35411400992573                     5      44.9544583764019
157889408      9.35411400992573                     5      47.4144583764019
157889408      9.35411400992573                     5      49.8744583764019
157889408      11.4955760099257                     5      33.8844583764019
157889408      11.4955760099257                     5      36.3444583764019
157889408      11.4955760099257                     5      38.8044583764019
157889408      11.4955760099257                     5      41.2644583764019
157889408      11.4955760099257                     5      43.7244583764019
157889408      11.4955760099257                     5      46.1844583764019
157889408      11.4955760099257                     5      48.6444583764019
157889408      12.2092830099257                     5      35.1144583764019
157889408      12.2092830099257                     5      37.5744583764019
157889408      12.2092830099257                     5      40.0344583764019
157889408      12.2092830099257                     5      42.4944583764019
157889408      12.2092830099257                     5      44.9544583764019
157889408      12.2092830099257                     5      47.4144583764019
157889408      12.2092830099257                     5      49.8744583764019
157889408      14.3507450099257                     5      33.8844583764019
157889408      14.3507450099257                     5      36.3444583764019
157889408      14.3507450099257                     5      38.8044583764019