search structure

300 atoms
2  atom types

0   17.131700 xlo xhi
0   10.000000 ylo yhi
0   50.000000 zlo zhi

Atoms

1 2 16.494556 5.000000 35.110520
2 2 16.494556 5.000000 37.570520
3 2 16.494556 5.000000 40.030520
4 2 16.494556 5.000000 42.490520
5 2 16.494556 5.000000 44.950520
6 2 16.494556 5.000000 47.410520
7 2 16.494556 5.000000 49.870520
8 2 1.504318 5.000000 33.880520
9 2 1.504318 5.000000 36.340520
10 2 1.504318 5.000000 38.800520
11 2 1.504318 5.000000 41.260520
12 2 1.504318 5.000000 43.720520
13 2 1.504318 5.000000 46.180520
14 2 1.504318 5.000000 48.640520
15 2 0.790612 5.000000 35.110520
16 2 0.790612 5.000000 37.570520
17 2 0.790612 5.000000 40.030520
18 2 0.790612 5.000000 42.490520
19 2 0.790612 5.000000 44.950520
20 2 0.790612 5.000000 47.410520
21 2 0.790612 5.000000 49.870520
22 2 2.932074 5.000000 33.880520
23 2 2.932074 5.000000 36.340520
24 2 2.932074 5.000000 38.800520
25 2 2.932074 5.000000 41.260520
26 2 2.932074 5.000000 43.720520
27 2 2.932074 5.000000 46.180520
28 2 2.932074 5.000000 48.640520
29 2 3.645781 5.000000 35.110520
30 2 3.645781 5.000000 37.570520
31 1 3.645781 5.000000 40.030520
32 1 3.645781 5.000000 42.490520
33 1 3.645781 5.000000 44.950520
34 1 3.645781 5.000000 47.410520
35 1 3.645781 5.000000 49.870520
36 1 5.787243 5.000000 33.880520
37 1 5.787243 5.000000 36.340520
38 1 5.787243 5.000000 38.800520
39 1 5.787243 5.000000 41.260520
40 1 5.787243 5.000000 43.720520
41 1 5.787243 5.000000 46.180520
42 1 5.787243 5.000000 48.640520
43 1 5.073537 5.000000 35.110520
44 1 5.073537 5.000000 37.570520
45 1 5.073537 5.000000 40.030520
46 1 5.073537 5.000000 42.490520
47 1 5.073537 5.000000 44.950520
48 1 5.073537 5.000000 47.410520
49 1 5.073537 5.000000 49.870520
50 1 7.214999 5.000000 33.880520
51 1 7.214999 5.000000 36.340520
52 1 7.214999 5.000000 38.800520
53 1 7.214999 5.000000 41.260520
54 1 7.214999 5.000000 43.720520
55 1 7.214999 5.000000 46.180520
56 1 7.214999 5.000000 48.640520
57 1 7.928706 5.000000 35.110520
58 1 7.928706 5.000000 37.570520
59 1 7.928706 5.000000 40.030520
60 1 7.928706 5.000000 42.490520
61 1 7.928706 5.000000 44.950520
62 1 7.928706 5.000000 47.410520
63 1 7.928706 5.000000 49.870520
64 1 10.070168 5.000000 33.880520
65 1 10.070168 5.000000 36.340520
66 1 10.070168 5.000000 38.800520
67 1 10.070168 5.000000 41.260520
68 1 10.070168 5.000000 43.720520
69 1 10.070168 5.000000 46.180520
70 1 10.070168 5.000000 48.640520
71 1 9.356462 5.000000 35.110520
72 1 9.356462 5.000000 37.570520
73 1 9.356462 5.000000 40.030520
74 1 9.356462 5.000000 42.490520
75 1 9.356462 5.000000 44.950520
76 1 9.356462 5.000000 47.410520
77 1 9.356462 5.000000 49.870520
78 1 11.497924 5.000000 33.880520
79 1 11.497924 5.000000 36.340520
80 1 11.497924 5.000000 38.800520
81 1 11.497924 5.000000 41.260520
82 1 11.497924 5.000000 43.720520
83 1 11.497924 5.000000 46.180520
84 1 11.497924 5.000000 48.640520
85 1 12.211631 5.000000 35.110520
86 1 12.211631 5.000000 37.570520
87 1 12.211631 5.000000 40.030520
88 1 12.211631 5.000000 42.490520
89 1 12.211631 5.000000 44.950520
90 1 12.211631 5.000000 47.410520
91 1 12.211631 5.000000 49.870520
92 1 14.353093 5.000000 33.880520
93 1 14.353093 5.000000 36.340520
94 1 14.353093 5.000000 38.800520
95 1 14.353093 5.000000 41.260520
96 1 14.353093 5.000000 43.720520
97 1 14.353093 5.000000 46.180520
98 1 14.353093 5.000000 48.640520
99 1 13.639387 5.000000 35.110520
100 1 13.639387 5.000000 37.570520
101 1 13.639387 5.000000 40.030520
102 1 13.639387 5.000000 42.490520
103 1 13.639387 5.000000 44.950520
104 1 13.639387 5.000000 47.410520
105 1 13.639387 5.000000 49.870520
106 1 15.780849 5.000000 33.880520
107 1 15.780849 5.000000 36.340520
108 1 15.780849 5.000000 38.800520
109 1 15.780849 5.000000 41.260520
110 1 15.780849 5.000000 43.720520
111 1 15.780849 5.000000 46.180520
112 1 15.780849 5.000000 48.640520
113 2 15.924413 5.000000 50.858020
114 2 1.360583 5.000000 50.858020
115 2 3.077865 5.000000 50.859020
116 2 5.643508 5.000000 50.858020
117 2 7.360790 5.000000 50.859020
118 2 9.926433 5.000000 50.858020
119 2 11.643715 5.000000 50.859020
120 2 14.209358 5.000000 50.858020
121 1 -0.039917 5.000000 8.565500
122 1 -0.039917 5.000000 12.826500
123 1 -0.039917 5.000000 17.087500
124 1 -0.039917 5.000000 21.348000
125 1 -0.039917 5.000000 9.986000
126 1 -0.039917 5.000000 14.246500
127 1 -0.039917 5.000000 18.507500
128 1 -0.039917 5.000000 22.768500
129 1 15.868066 5.000000 10.696000
130 1 15.868066 5.000000 14.957000
131 1 15.868066 5.000000 19.217500
132 1 15.868066 5.000000 23.478500
133 1 15.868066 5.000000 7.855500
134 1 15.868066 5.000000 12.116500
135 1 15.868066 5.000000 16.377000
136 1 15.868066 5.000000 20.638000
137 1 14.644348 5.000000 8.565500
138 1 14.644348 5.000000 12.826500
139 1 14.644348 5.000000 17.087500
140 1 14.644348 5.000000 21.348000
141 1 13.420631 5.000000 10.696000
142 1 13.420631 5.000000 14.957000
143 1 13.420631 5.000000 19.217500
144 1 13.420631 5.000000 23.478500
145 1 14.644348 5.000000 9.986000
146 1 14.644348 5.000000 14.246500
147 1 14.644348 5.000000 18.507500
148 1 14.644348 5.000000 22.768500
149 1 13.420631 5.000000 7.855500
150 1 13.420631 5.000000 12.116500
151 1 13.420631 5.000000 16.377000
152 1 13.420631 5.000000 20.638000
153 1 12.197085 5.000000 8.565500
154 1 12.197085 5.000000 12.826500
155 1 12.197085 5.000000 17.087500
156 1 12.197085 5.000000 21.348000
157 1 10.973368 5.000000 10.696000
158 1 10.973368 5.000000 14.957000
159 1 10.973368 5.000000 19.217500
160 1 10.973368 5.000000 23.478500
161 1 12.197085 5.000000 9.986000
162 1 12.197085 5.000000 14.246500
163 1 12.197085 5.000000 18.507500
164 1 12.197085 5.000000 22.768500
165 1 10.973368 5.000000 7.855500
166 1 10.973368 5.000000 12.116500
167 1 10.973368 5.000000 16.377000
168 1 10.973368 5.000000 20.638000
169 1 9.749650 5.000000 8.565500
170 1 9.749650 5.000000 12.826500
171 1 9.749650 5.000000 17.087500
172 1 9.749650 5.000000 21.348000
173 1 8.525933 5.000000 10.696000
174 1 8.525933 5.000000 14.957000
175 1 8.525933 5.000000 19.217500
176 1 8.525933 5.000000 23.478500
177 1 9.749650 5.000000 9.986000
178 1 9.749650 5.000000 14.246500
179 1 9.749650 5.000000 18.507500
180 1 9.749650 5.000000 22.768500
181 1 8.525933 5.000000 7.855500
182 1 8.525933 5.000000 12.116500
183 1 8.525933 5.000000 16.377000
184 1 8.525933 5.000000 20.638000
185 1 7.302216 5.000000 8.565500
186 1 7.302216 5.000000 12.826500
187 1 7.302216 5.000000 17.087500
188 1 7.302216 5.000000 21.348000
189 1 6.078498 5.000000 10.696000
190 1 6.078498 5.000000 14.957000
191 1 6.078498 5.000000 19.217500
192 1 6.078498 5.000000 23.478500
193 1 7.302216 5.000000 9.986000
194 1 7.302216 5.000000 14.246500
195 1 7.302216 5.000000 18.507500
196 1 7.302216 5.000000 22.768500
197 1 6.078498 5.000000 7.855500
198 1 6.078498 5.000000 12.116500
199 1 6.078498 5.000000 16.377000
200 1 6.078498 5.000000 20.638000
201 1 4.854781 5.000000 8.565500
202 1 4.854781 5.000000 12.826500
203 1 4.854781 5.000000 17.087500
204 1 4.854781 5.000000 21.348000
205 1 3.631235 5.000000 10.696000
206 1 3.631235 5.000000 14.957000
207 1 3.631235 5.000000 19.217500
208 1 3.631235 5.000000 23.478500
209 1 4.854781 5.000000 9.986000
210 1 4.854781 5.000000 14.246500
211 1 4.854781 5.000000 18.507500
212 1 4.854781 5.000000 22.768500
213 1 3.631235 5.000000 7.855500
214 1 3.631235 5.000000 12.116500
215 1 3.631235 5.000000 16.377000
216 1 3.631235 5.000000 20.638000
217 1 2.407518 5.000000 8.565500
218 1 2.407518 5.000000 12.826500
219 1 2.407518 5.000000 17.087500
220 1 2.407518 5.000000 21.348000
221 1 1.183800 5.000000 10.696000
222 1 1.183800 5.000000 14.957000
223 1 1.183800 5.000000 19.217500
224 1 1.183800 5.000000 23.478500
225 1 2.407518 5.000000 9.986000
226 1 2.407518 5.000000 14.246500
227 1 2.407518 5.000000 18.507500
228 1 2.407518 5.000000 22.768500
229 1 1.183800 5.000000 7.855500
230 1 1.183800 5.000000 12.116500
231 1 1.183800 5.000000 16.377000
232 1 1.183800 5.000000 20.638000
233 2 15.865667 5.000000 6.715500
234 2 13.423030 5.000000 6.715500
235 2 10.975766 5.000000 6.715500
236 2 8.528332 5.000000 6.715500
237 2 6.080897 5.000000 6.715500
238 2 3.633634 5.000000 6.715500
239 2 1.181402 5.000000 6.715500
240 2 3.571867 2.977764 25.668022
241 2 4.358878 0.821292 24.985984
242 2 10.371472 2.829462 25.523670
243 2 16.167654 7.715233 24.999407
244 2 13.504894 6.044122 24.320365
245 2 0.930243 5.467768 27.501727
246 2 9.176096 7.476153 24.634565
247 2 8.846494 8.246274 27.656919
248 2 9.393359 4.507621 28.064053
249 2 10.048680 7.020732 29.904107
250 2 6.435566 8.879533 31.861026
251 2 16.788932 1.669775 28.364873
252 2 1.625383 8.450892 31.448753
253 2 10.717556 3.206834 30.730063
254 2 12.180699 5.610834 31.609210
255 2 4.927029 9.897584 31.595254
256 2 9.782314 5.405291 33.755824
257 2 1.904049 2.789596 31.930889
258 2 1.308363 3.428690 32.862354
259 2 4.652563 2.559756 31.292827
260 2 0.176798 5.050751 33.804020
261 2 12.688539 7.200493 30.609467
262 2 10.965440 3.683940 33.804020
263 2 7.644204 0.900718 33.804020
264 2 12.316714 6.528658 33.571535
265 2 3.156006 1.561388 33.804020
266 2 16.291236 0.278292 31.540243
267 2 2.304598 5.846147 30.623590
268 1 1.995747 4.474466 24.528931
269 1 3.156516 5.740519 27.014341
270 1 6.864751 3.402376 24.599624
271 1 16.517380 2.036654 25.783042
272 1 7.712205 9.692956 27.123602
273 1 2.789567 0.705174 27.461343
274 1 2.793549 3.483659 26.959773
275 1 15.809034 4.013898 23.500000
276 1 4.446808 7.782920 23.513431
277 1 13.323727 9.827527 24.859816
278 1 16.185025 8.660326 23.500000
279 1 16.551551 6.466113 28.379629
280 1 2.233307 5.395384 26.304805
281 1 6.883351 7.325195 29.145030
282 1 2.913018 3.092995 30.369531
283 1 5.240481 0.539763 29.364445
284 1 16.292013 8.899968 27.926055
285 1 1.198489 6.771330 27.672307
286 1 7.501410 0.415472 28.418185
287 1 10.140297 0.028098 28.710370
288 1 7.417772 0.438642 28.576959
289 1 13.744551 9.665745 25.337007
290 1 0.965637 3.570670 31.705482
291 1 11.608408 8.057217 30.803507
292 1 9.215938 7.157067 32.235369
293 1 3.839033 1.042544 28.707319
294 1 5.904422 9.785937 33.804020
295 1 16.537258 3.621996 29.486461
296 1 12.833548 1.815542 31.737545
297 1 16.608097 2.086705 32.484887
298 1 15.038924 3.008767 29.056377
299 1 10.664645 3.362237 30.830393
300 1 8.786019 7.213111 30.504732
