300
Atoms. Timestep: 0
461366176              4.340506                     5               34.3065
461366176              4.340506                     5               36.7665
461366176              4.340506                     5               39.2265
461366176              4.340506                     5               41.6865
461366176              4.340506                     5               44.1465
461366176              4.340506                     5               46.6065
461366176              4.340506                     5               49.0665
461366176              6.481969                     5               33.0765
461366176              6.481969                     5               35.5365
461366176              6.481969                     5               37.9965
461366176              6.481969                     5               40.4565
461366176              6.481969                     5               42.9165
461366176              6.481969                     5               45.3765
461366176              6.481969                     5               47.8365
461366176              5.768262                     5               34.3065
461366176              5.768262                     5               36.7665
461366176              5.768262                     5               39.2265
461366176              5.768262                     5               41.6865
461366176              5.768262                     5               44.1465
461366176              5.768262                     5               46.6065
461366176              5.768262                     5               49.0665
461366176              7.909725                     5               33.0765
461366176              7.909725                     5               35.5365
461366176              7.909725                     5               37.9965
461366176              7.909725                     5               40.4565
461366176              7.909725                     5               42.9165
461366176              7.909725                     5               45.3765
461366176              7.909725                     5               47.8365
461366176              8.623431                     5               34.3065
461366176              8.623431                     5               36.7665
461366144              8.623431                     5               39.2265
461366144              8.623431                     5               41.6865
461366144              8.623431                     5               44.1465
461366144              8.623431                     5               46.6065
461366144              8.623431                     5               49.0665
461366144             10.764894                     5               33.0765
461366144             10.764894                     5               35.5365
461366144             10.764894                     5               37.9965
461366144             10.764894                     5               40.4565
461366144             10.764894                     5               42.9165
461366144             10.764894                     5               45.3765
461366144             10.764894                     5               47.8365
461366144             10.051187                     5               34.3065
461366144             10.051187                     5               36.7665
461366144             10.051187                     5               39.2265
461366144             10.051187                     5               41.6865
461366144             10.051187                     5               44.1465
461366144             10.051187                     5               46.6065
461366144             10.051187                     5               49.0665
461366144              12.19265                     5               33.0765
461366144              12.19265                     5               35.5365
461366144              12.19265                     5               37.9965
461366144              12.19265                     5               40.4565
461366144              12.19265                     5               42.9165
461366144              12.19265                     5               45.3765
461366144              12.19265                     5               47.8365
461366144             12.906356                     5               34.3065
461366144             12.906356                     5               36.7665
461366144             12.906356                     5               39.2265
461366144             12.906356                     5               41.6865
461366144             12.906356                     5               44.1465
461366144             12.906356                     5               46.6065
461366144             12.906356                     5               49.0665
461366144             15.047819                     5               33.0765
461366144             15.047819                     5               35.5365
461366144             15.047819                     5               37.9965
461366144             15.047819                     5               40.4565
461366144             15.047819                     5               42.9165
461366144             15.047819                     5               45.3765
461366144             15.047819                     5               47.8365
461366144             14.334112                     5               34.3065
461366144             14.334112                     5               36.7665
461366144             14.334112                     5               39.2265
461366144             14.334112                     5               41.6865
461366144             14.334112                     5               44.1465
461366144             14.334112                     5               46.6065
461366144             14.334112                     5               49.0665
461366144             16.475575                     5               33.0765
461366144             16.475575                     5               35.5365
461366144             16.475575                     5               37.9965
461366144             16.475575                     5               40.4565
461366144             16.475575                     5               42.9165
461366144             16.475575                     5               45.3765
461366144             16.475575                     5               47.8365
461366144              0.057581                     5               34.3065
461366144              0.057581                     5               36.7665
461366144              0.057581                     5               39.2265
461366144              0.057581                     5               41.6865
461366144              0.057581                     5               44.1465
461366144              0.057581                     5               46.6065
461366144              0.057581                     5               49.0665
461366144              2.199044                     5               33.0765
461366144              2.199044                     5               35.5365
461366144              2.199044                     5               37.9965
461366144              2.199044                     5               40.4565
461366144              2.199044                     5               42.9165
461366144              2.199044                     5               45.3765
461366144              2.199044                     5               47.8365
461366144              1.485337                     5               34.3065
461366144              1.485337                     5               36.7665
461366144              1.485337                     5               39.2265
461366144              1.485337                     5               41.6865
461366144              1.485337                     5               44.1465
461366144              1.485337                     5               46.6065
461366144              1.485337                     5               49.0665
461366144                3.6268                     5               33.0765
461366144                3.6268                     5               35.5365
461366144                3.6268                     5               37.9965
461366144                3.6268                     5               40.4565
461366144                3.6268                     5               42.9165
461366144                3.6268                     5               45.3765
461366144                3.6268                     5               47.8365
461366176              3.770363                     5     0.054000000000002
461366176              6.338234                     5     0.054000000000002
461366176              8.055515                     5    0.0549999999999997
461366176             10.621159                     5     0.054000000000002
461366176              12.33844                     5    0.0549999999999997
461366176             14.904084                     5     0.054000000000002
461366176             16.621365                     5    0.0549999999999997
461366176              2.055309                     5     0.054000000000002
461366144             17.091783                     5                8.5655
461366144             17.091783                     5               12.8265
461366144             17.091783                     5               17.0875
461366144             17.091783                     5                21.348
461366144             17.091783                     5                 9.986
461366144             17.091783                     5               14.2465
461366144             17.091783                     5               18.5075
461366144             17.091783                     5               22.7685
461366144             15.868066                     5                10.696
461366144             15.868066                     5                14.957
461366144             15.868066                     5               19.2175
461366144             15.868066                     5               23.4785
461366144             15.868066                     5                7.8555
461366144             15.868066                     5               12.1165
461366144             15.868066                     5                16.377
461366144             15.868066                     5                20.638
461366144             14.644348                     5                8.5655
461366144             14.644348                     5               12.8265
461366144             14.644348                     5               17.0875
461366144             14.644348                     5                21.348
461366144             13.420631                     5                10.696
461366144             13.420631                     5                14.957
461366144             13.420631                     5               19.2175
461366144             13.420631                     5               23.4785
461366144             14.644348                     5                 9.986
461366144             14.644348                     5               14.2465
461366144             14.644348                     5               18.5075
461366144             14.644348                     5               22.7685
461366144             13.420631                     5                7.8555
461366144             13.420631                     5               12.1165
461366144             13.420631                     5                16.377
461366144             13.420631                     5                20.638
461366144             12.197085                     5                8.5655
461366144             12.197085                     5               12.8265
461366144             12.197085                     5               17.0875
461366144             12.197085                     5                21.348
461366144             10.973368                     5                10.696
461366144             10.973368                     5                14.957
461366144             10.973368                     5               19.2175
461366144             10.973368                     5               23.4785
461366144             12.197085                     5                 9.986
461366144             12.197085                     5               14.2465
461366144             12.197085                     5               18.5075
461366144             12.197085                     5               22.7685
461366144             10.973368                     5                7.8555
461366144             10.973368                     5               12.1165
461366144             10.973368                     5                16.377
461366144             10.973368                     5                20.638
461366144               9.74965                     5                8.5655
461366144               9.74965                     5               12.8265
461366144               9.74965                     5               17.0875
461366144               9.74965                     5                21.348
461366144              8.525933                     5                10.696
461366144              8.525933                     5                14.957
461366144              8.525933                     5               19.2175
461366144              8.525933                     5               23.4785
461366144               9.74965                     5                 9.986
461366144               9.74965                     5               14.2465
461366144               9.74965                     5               18.5075
461366144               9.74965                     5               22.7685
461366144              8.525933                     5                7.8555
461366144              8.525933                     5               12.1165
461366144              8.525933                     5                16.377
461366144              8.525933                     5                20.638
461366144              7.302216                     5                8.5655
461366144              7.302216                     5               12.8265
461366144              7.302216                     5               17.0875
461366144              7.302216                     5                21.348
461366144              6.078498                     5                10.696
461366144              6.078498                     5                14.957
461366144              6.078498                     5               19.2175
461366144              6.078498                     5               23.4785
461366144              7.302216                     5                 9.986
461366144              7.302216                     5               14.2465
461366144              7.302216                     5               18.5075
461366144              7.302216                     5               22.7685
461366144              6.078498                     5                7.8555
461366144              6.078498                     5               12.1165
461366144              6.078498                     5                16.377
461366144              6.078498                     5                20.638
461366144              4.854781                     5                8.5655
461366144              4.854781                     5               12.8265
461366144              4.854781                     5               17.0875
461366144              4.854781                     5                21.348
461366144              3.631235                     5                10.696
461366144              3.631235                     5                14.957
461366144              3.631235                     5               19.2175
461366144              3.631235                     5               23.4785
461366144              4.854781                     5                 9.986
461366144              4.854781                     5               14.2465
461366144              4.854781                     5               18.5075
461366144              4.854781                     5               22.7685
461366144              3.631235                     5                7.8555
461366144              3.631235                     5               12.1165
461366144              3.631235                     5                16.377
461366144              3.631235                     5                20.638
461366144              2.407518                     5                8.5655
461366144              2.407518                     5               12.8265
461366144              2.407518                     5               17.0875
461366144              2.407518                     5                21.348
461366144                1.1838                     5                10.696
461366144                1.1838                     5                14.957
461366144                1.1838                     5               19.2175
461366144                1.1838                     5               23.4785
461366144              2.407518                     5                 9.986
461366144              2.407518                     5               14.2465
461366144              2.407518                     5               18.5075
461366144              2.407518                     5               22.7685
461366144                1.1838                     5                7.8555
461366144                1.1838                     5               12.1165
461366144                1.1838                     5                16.377
461366144                1.1838                     5                20.638
461366176             15.865667                     5                6.7155
461366176              13.42303                     5                6.7155
461366176             10.975766                     5                6.7155
461366176              8.528332                     5                6.7155
461366176              6.080897                     5                6.7155
461366176              3.633634                     5                6.7155
461366176              1.181402                     5                6.7155
461366176              6.863157              1.683781             24.603481
461366176              8.077488              0.027059             24.551864
461366176             16.396497              9.271901             27.773659
461366176              4.340035              0.321283             26.487471
461366176             10.079481              6.885289             25.624051
461366176              3.077718              7.058172             26.220723
461366176             12.212672              9.992769             23.682818
461366176             13.418648              3.923642             23.706351
461366176             12.916076              3.517979             23.950132
461366176              14.18694              0.569613             26.782943
461366176              2.452884               0.83467             30.459905
461366176              4.182024              7.170024             26.270993
461366176              3.306545              5.725845             28.004478
461366176              8.482587              5.547976              27.91056
461366176             11.182416              9.274655              26.51382
461366176              7.628075              8.235812             25.879445
461366176              7.781699              4.121135             30.524212
461366176              5.973607              2.577747             27.855462
461366176             16.469647              2.804079             31.168635
461366176              5.087695              4.883878             30.289515
461366176              5.867446              7.252434             26.583845
461366176              13.20798              9.435113             29.647436
461366176             10.554116              8.554332                    33
461366176              1.858813              0.788226                    33
461366176             14.876571               3.36587                    33
461366176              12.70507              6.503817             29.169019
461366176              0.766958              6.475892               28.2059
461366176              16.73377              7.403549             28.095716
461366144             15.167996               9.39881             24.862226
461366144              8.614545              3.433224             24.976916
461366144              2.613811              5.633193             25.316548
461366144              5.990035               6.58376             25.858708
461366144             10.668644              9.347416             27.304737
461366144             15.686636              2.255477              24.53636
461366144              12.31488              5.719608             26.222353
461366144              2.906406              6.930269                  23.5
461366144             10.523238               8.88639             24.974738
461366144              5.691884               4.24623                  23.5
461366144              2.206947              1.198553             23.861333
461366144              1.460344              3.446575             29.622412
461366144             16.434522               1.63666             28.422006
461366144              3.150683              0.435422             25.124979
461366144              3.818659              6.321992             29.969019
461366144              5.215956              6.391732             28.478707
461366144              1.736286              3.182353             28.450741
461366144              1.313394              3.292814             28.336348
461366144               9.04047               7.61581              25.02909
461366144              3.465912              9.977317             27.860479
461366144             16.758026              9.509722             26.966238
461366144              7.593977              8.562575             29.019204
461366144              2.032534               1.02661             31.056948
461366144              4.184336              2.138949             30.967998
461366144              6.191321              1.524858             32.414305
461366144              1.514525              0.120233             30.895294
461366144             16.344914              8.917159                    33
461366144              9.757636               0.29596                    33
461366144              9.164483              7.694268             29.729286
461366144             10.183379              5.312783             31.119843
461366144              3.898066              8.542606              31.58313
461366144             12.076541              6.830632             32.759573
461366144              9.276916              9.717899             31.969499
300
Atoms. Timestep: 10
461366176       4.3404293998743                     5      34.3065833168131
461366176       4.3404293998743                     5      36.7665833168131
461366176       4.3404293998743                     5      39.2265833168131
461366176       4.3404293998743                     5      41.6865833168131
461366176       4.3404293998743                     5      44.1465833168131
461366176       4.3404293998743                     5      46.6065833168131
461366176       4.3404293998743                     5      49.0665833168131
461366176       6.4818923998743                     5      33.0765833168131
461366176       6.4818923998743                     5      35.5365833168131
461366176       6.4818923998743                     5      37.9965833168131
461366176       6.4818923998743                     5      40.4565833168131
461366176       6.4818923998743                     5      42.9165833168131
461366176       6.4818923998743                     5      45.3765833168131
461366176       6.4818923998743                     5      47.8365833168131
461366176       5.7681853998743                     5      34.3065833168131
461366176       5.7681853998743                     5      36.7665833168131
461366176       5.7681853998743                     5      39.2265833168131
461366176       5.7681853998743                     5      41.6865833168131
461366176       5.7681853998743                     5      44.1465833168131
461366176       5.7681853998743                     5      46.6065833168131
461366176       5.7681853998743                     5      49.0665833168131
461366176       7.9096483998743                     5      33.0765833168131
461366176       7.9096483998743                     5      35.5365833168131
461366176       7.9096483998743                     5      37.9965833168131
461366176       7.9096483998743                     5      40.4565833168131
461366176       7.9096483998743                     5      42.9165833168131
461366176       7.9096483998743                     5      45.3765833168131
461366176       7.9096483998743                     5      47.8365833168131
461366176      8.62335439987431                     5      34.3065833168131
461366176      8.62335439987431                     5      36.7665833168131
461366144      8.62335439987431                     5      39.2265833168131
461366144      8.62335439987431                     5      41.6865833168131
461366144      8.62335439987431                     5      44.1465833168131
461366144      8.62335439987431                     5      46.6065833168131
461366144      8.62335439987431                     5      49.0665833168131
461366144      10.7648173998743                     5      33.0765833168131
461366144      10.7648173998743                     5      35.5365833168131
461366144      10.7648173998743                     5      37.9965833168131
461366144      10.7648173998743                     5      40.4565833168131
461366144      10.7648173998743                     5      42.9165833168131
461366144      10.7648173998743                     5      45.3765833168131
461366144      10.7648173998743                     5      47.8365833168131
461366144      10.0511103998743                     5      34.3065833168131
461366144      10.0511103998743                     5      36.7665833168131
461366144      10.0511103998743                     5      39.2265833168131
461366144      10.0511103998743                     5      41.6865833168131
461366144      10.0511103998743                     5      44.1465833168131
461366144      10.0511103998743                     5      46.6065833168131
461366144      10.0511103998743                     5      49.0665833168131
461366144      12.1925733998743                     5      33.0765833168131
461366144      12.1925733998743                     5      35.5365833168131
461366144      12.1925733998743                     5      37.9965833168131
461366144      12.1925733998743                     5      40.4565833168131
461366144      12.1925733998743                     5      42.9165833168131
461366144      12.1925733998743                     5      45.3765833168131
461366144      12.1925733998743                     5      47.8365833168131
461366144      12.9062793998743                     5      34.3065833168131
461366144      12.9062793998743                     5      36.7665833168131
461366144      12.9062793998743                     5      39.2265833168131
461366144      12.9062793998743                     5      41.6865833168131
461366144      12.9062793998743                     5      44.1465833168131
461366144      12.9062793998743                     5      46.6065833168131
461366144      12.9062793998743                     5      49.0665833168131
461366144      15.0477423998743                     5      33.0765833168131
461366144      15.0477423998743                     5      35.5365833168131
461366144      15.0477423998743                     5      37.9965833168131
461366144      15.0477423998743                     5      40.4565833168131
461366144      15.0477423998743                     5      42.9165833168131
461366144      15.0477423998743                     5      45.3765833168131
461366144      15.0477423998743                     5      47.8365833168131
461366144      14.3340353998743                     5      34.3065833168131
461366144      14.3340353998743                     5      36.7665833168131
461366144      14.3340353998743                     5      39.2265833168131
461366144      14.3340353998743                     5      41.6865833168131
461366144      14.3340353998743                     5      44.1465833168131
461366144      14.3340353998743                     5      46.6065833168131
461366144      14.3340353998743                     5      49.0665833168131
461366144      16.4754983998743                     5      33.0765833168131
461366144      16.4754983998743                     5      35.5365833168131
461366144      16.4754983998743                     5      37.9965833168131
461366144      16.4754983998743                     5      40.4565833168131
461366144      16.4754983998743                     5      42.9165833168131
461366144      16.4754983998743                     5      45.3765833168131
461366144      16.4754983998743                     5      47.8365833168131
461366144    0.0575043998743046                     5      34.3065833168131
461366144    0.0575043998743046                     5      36.7665833168131
461366144    0.0575043998743046                     5      39.2265833168131
461366144    0.0575043998743046                     5      41.6865833168131
461366144    0.0575043998743046                     5      44.1465833168131
461366144    0.0575043998743046                     5      46.6065833168131
461366144    0.0575043998743046                     5      49.0665833168131
461366144       2.1989673998743                     5      33.0765833168131
461366144       2.1989673998743                     5      35.5365833168131
461366144       2.1989673998743                     5      37.9965833168131