search structure

300 atoms
2  atom types

0   17.131700 xlo xhi
0   10.000000 ylo yhi
0   50.000000 zlo zhi

Atoms

1 2 4.340506 5.000000 34.306500
2 2 4.340506 5.000000 36.766500
3 2 4.340506 5.000000 39.226500
4 2 4.340506 5.000000 41.686500
5 2 4.340506 5.000000 44.146500
6 2 4.340506 5.000000 46.606500
7 2 4.340506 5.000000 49.066500
8 2 6.481969 5.000000 33.076500
9 2 6.481969 5.000000 35.536500
10 2 6.481969 5.000000 37.996500
11 2 6.481969 5.000000 40.456500
12 2 6.481969 5.000000 42.916500
13 2 6.481969 5.000000 45.376500
14 2 6.481969 5.000000 47.836500
15 2 5.768262 5.000000 34.306500
16 2 5.768262 5.000000 36.766500
17 2 5.768262 5.000000 39.226500
18 2 5.768262 5.000000 41.686500
19 2 5.768262 5.000000 44.146500
20 2 5.768262 5.000000 46.606500
21 2 5.768262 5.000000 49.066500
22 2 7.909725 5.000000 33.076500
23 2 7.909725 5.000000 35.536500
24 2 7.909725 5.000000 37.996500
25 2 7.909725 5.000000 40.456500
26 2 7.909725 5.000000 42.916500
27 2 7.909725 5.000000 45.376500
28 2 7.909725 5.000000 47.836500
29 2 8.623431 5.000000 34.306500
30 2 8.623431 5.000000 36.766500
31 1 8.623431 5.000000 39.226500
32 1 8.623431 5.000000 41.686500
33 1 8.623431 5.000000 44.146500
34 1 8.623431 5.000000 46.606500
35 1 8.623431 5.000000 49.066500
36 1 10.764894 5.000000 33.076500
37 1 10.764894 5.000000 35.536500
38 1 10.764894 5.000000 37.996500
39 1 10.764894 5.000000 40.456500
40 1 10.764894 5.000000 42.916500
41 1 10.764894 5.000000 45.376500
42 1 10.764894 5.000000 47.836500
43 1 10.051187 5.000000 34.306500
44 1 10.051187 5.000000 36.766500
45 1 10.051187 5.000000 39.226500
46 1 10.051187 5.000000 41.686500
47 1 10.051187 5.000000 44.146500
48 1 10.051187 5.000000 46.606500
49 1 10.051187 5.000000 49.066500
50 1 12.192650 5.000000 33.076500
51 1 12.192650 5.000000 35.536500
52 1 12.192650 5.000000 37.996500
53 1 12.192650 5.000000 40.456500
54 1 12.192650 5.000000 42.916500
55 1 12.192650 5.000000 45.376500
56 1 12.192650 5.000000 47.836500
57 1 12.906356 5.000000 34.306500
58 1 12.906356 5.000000 36.766500
59 1 12.906356 5.000000 39.226500
60 1 12.906356 5.000000 41.686500
61 1 12.906356 5.000000 44.146500
62 1 12.906356 5.000000 46.606500
63 1 12.906356 5.000000 49.066500
64 1 15.047819 5.000000 33.076500
65 1 15.047819 5.000000 35.536500
66 1 15.047819 5.000000 37.996500
67 1 15.047819 5.000000 40.456500
68 1 15.047819 5.000000 42.916500
69 1 15.047819 5.000000 45.376500
70 1 15.047819 5.000000 47.836500
71 1 14.334112 5.000000 34.306500
72 1 14.334112 5.000000 36.766500
73 1 14.334112 5.000000 39.226500
74 1 14.334112 5.000000 41.686500
75 1 14.334112 5.000000 44.146500
76 1 14.334112 5.000000 46.606500
77 1 14.334112 5.000000 49.066500
78 1 16.475575 5.000000 33.076500
79 1 16.475575 5.000000 35.536500
80 1 16.475575 5.000000 37.996500
81 1 16.475575 5.000000 40.456500
82 1 16.475575 5.000000 42.916500
83 1 16.475575 5.000000 45.376500
84 1 16.475575 5.000000 47.836500
85 1 0.057581 5.000000 34.306500
86 1 0.057581 5.000000 36.766500
87 1 0.057581 5.000000 39.226500
88 1 0.057581 5.000000 41.686500
89 1 0.057581 5.000000 44.146500
90 1 0.057581 5.000000 46.606500
91 1 0.057581 5.000000 49.066500
92 1 2.199044 5.000000 33.076500
93 1 2.199044 5.000000 35.536500
94 1 2.199044 5.000000 37.996500
95 1 2.199044 5.000000 40.456500
96 1 2.199044 5.000000 42.916500
97 1 2.199044 5.000000 45.376500
98 1 2.199044 5.000000 47.836500
99 1 1.485337 5.000000 34.306500
100 1 1.485337 5.000000 36.766500
101 1 1.485337 5.000000 39.226500
102 1 1.485337 5.000000 41.686500
103 1 1.485337 5.000000 44.146500
104 1 1.485337 5.000000 46.606500
105 1 1.485337 5.000000 49.066500
106 1 3.626800 5.000000 33.076500
107 1 3.626800 5.000000 35.536500
108 1 3.626800 5.000000 37.996500
109 1 3.626800 5.000000 40.456500
110 1 3.626800 5.000000 42.916500
111 1 3.626800 5.000000 45.376500
112 1 3.626800 5.000000 47.836500
113 2 3.770363 5.000000 50.054000
114 2 6.338234 5.000000 50.054000
115 2 8.055515 5.000000 50.055000
116 2 10.621159 5.000000 50.054000
117 2 12.338440 5.000000 50.055000
118 2 14.904084 5.000000 50.054000
119 2 16.621365 5.000000 50.055000
120 2 2.055309 5.000000 50.054000
121 1 -0.039917 5.000000 8.565500
122 1 -0.039917 5.000000 12.826500
123 1 -0.039917 5.000000 17.087500
124 1 -0.039917 5.000000 21.348000
125 1 -0.039917 5.000000 9.986000
126 1 -0.039917 5.000000 14.246500
127 1 -0.039917 5.000000 18.507500
128 1 -0.039917 5.000000 22.768500
129 1 15.868066 5.000000 10.696000
130 1 15.868066 5.000000 14.957000
131 1 15.868066 5.000000 19.217500
132 1 15.868066 5.000000 23.478500
133 1 15.868066 5.000000 7.855500
134 1 15.868066 5.000000 12.116500
135 1 15.868066 5.000000 16.377000
136 1 15.868066 5.000000 20.638000
137 1 14.644348 5.000000 8.565500
138 1 14.644348 5.000000 12.826500
139 1 14.644348 5.000000 17.087500
140 1 14.644348 5.000000 21.348000
141 1 13.420631 5.000000 10.696000
142 1 13.420631 5.000000 14.957000
143 1 13.420631 5.000000 19.217500
144 1 13.420631 5.000000 23.478500
145 1 14.644348 5.000000 9.986000
146 1 14.644348 5.000000 14.246500
147 1 14.644348 5.000000 18.507500
148 1 14.644348 5.000000 22.768500
149 1 13.420631 5.000000 7.855500
150 1 13.420631 5.000000 12.116500
151 1 13.420631 5.000000 16.377000
152 1 13.420631 5.000000 20.638000
153 1 12.197085 5.000000 8.565500
154 1 12.197085 5.000000 12.826500
155 1 12.197085 5.000000 17.087500
156 1 12.197085 5.000000 21.348000
157 1 10.973368 5.000000 10.696000
158 1 10.973368 5.000000 14.957000
159 1 10.973368 5.000000 19.217500
160 1 10.973368 5.000000 23.478500
161 1 12.197085 5.000000 9.986000
162 1 12.197085 5.000000 14.246500
163 1 12.197085 5.000000 18.507500
164 1 12.197085 5.000000 22.768500
165 1 10.973368 5.000000 7.855500
166 1 10.973368 5.000000 12.116500
167 1 10.973368 5.000000 16.377000
168 1 10.973368 5.000000 20.638000
169 1 9.749650 5.000000 8.565500
170 1 9.749650 5.000000 12.826500
171 1 9.749650 5.000000 17.087500
172 1 9.749650 5.000000 21.348000
173 1 8.525933 5.000000 10.696000
174 1 8.525933 5.000000 14.957000
175 1 8.525933 5.000000 19.217500
176 1 8.525933 5.000000 23.478500
177 1 9.749650 5.000000 9.986000
178 1 9.749650 5.000000 14.246500
179 1 9.749650 5.000000 18.507500
180 1 9.749650 5.000000 22.768500
181 1 8.525933 5.000000 7.855500
182 1 8.525933 5.000000 12.116500
183 1 8.525933 5.000000 16.377000
184 1 8.525933 5.000000 20.638000
185 1 7.302216 5.000000 8.565500
186 1 7.302216 5.000000 12.826500
187 1 7.302216 5.000000 17.087500
188 1 7.302216 5.000000 21.348000
189 1 6.078498 5.000000 10.696000
190 1 6.078498 5.000000 14.957000
191 1 6.078498 5.000000 19.217500
192 1 6.078498 5.000000 23.478500
193 1 7.302216 5.000000 9.986000
194 1 7.302216 5.000000 14.246500
195 1 7.302216 5.000000 18.507500
196 1 7.302216 5.000000 22.768500
197 1 6.078498 5.000000 7.855500
198 1 6.078498 5.000000 12.116500
199 1 6.078498 5.000000 16.377000
200 1 6.078498 5.000000 20.638000
201 1 4.854781 5.000000 8.565500
202 1 4.854781 5.000000 12.826500
203 1 4.854781 5.000000 17.087500
204 1 4.854781 5.000000 21.348000
205 1 3.631235 5.000000 10.696000
206 1 3.631235 5.000000 14.957000
207 1 3.631235 5.000000 19.217500
208 1 3.631235 5.000000 23.478500
209 1 4.854781 5.000000 9.986000
210 1 4.854781 5.000000 14.246500
211 1 4.854781 5.000000 18.507500
212 1 4.854781 5.000000 22.768500
213 1 3.631235 5.000000 7.855500
214 1 3.631235 5.000000 12.116500
215 1 3.631235 5.000000 16.377000
216 1 3.631235 5.000000 20.638000
217 1 2.407518 5.000000 8.565500
218 1 2.407518 5.000000 12.826500
219 1 2.407518 5.000000 17.087500
220 1 2.407518 5.000000 21.348000
221 1 1.183800 5.000000 10.696000
222 1 1.183800 5.000000 14.957000
223 1 1.183800 5.000000 19.217500
224 1 1.183800 5.000000 23.478500
225 1 2.407518 5.000000 9.986000
226 1 2.407518 5.000000 14.246500
227 1 2.407518 5.000000 18.507500
228 1 2.407518 5.000000 22.768500
229 1 1.183800 5.000000 7.855500
230 1 1.183800 5.000000 12.116500
231 1 1.183800 5.000000 16.377000
232 1 1.183800 5.000000 20.638000
233 2 15.865667 5.000000 6.715500
234 2 13.423030 5.000000 6.715500
235 2 10.975766 5.000000 6.715500
236 2 8.528332 5.000000 6.715500
237 2 6.080897 5.000000 6.715500
238 2 3.633634 5.000000 6.715500
239 2 1.181402 5.000000 6.715500
240 2 6.863157 1.683781 24.603481
241 2 8.077488 0.027059 24.551864
242 2 16.396497 9.271901 27.773659
243 2 4.340035 0.321283 26.487471
244 2 10.079481 6.885289 25.624051
245 2 3.077718 7.058172 26.220723
246 2 12.212672 9.992769 23.682818
247 2 13.418648 3.923642 23.706351
248 2 12.916076 3.517979 23.950132
249 2 14.186940 0.569613 26.782943
250 2 2.452884 0.834670 30.459905
251 2 4.182024 7.170024 26.270993
252 2 3.306545 5.725845 28.004478
253 2 8.482587 5.547976 27.910560
254 2 11.182416 9.274655 26.513820
255 2 7.628075 8.235812 25.879445
256 2 7.781699 4.121135 30.524212
257 2 5.973607 2.577747 27.855462
258 2 16.469647 2.804079 31.168635
259 2 5.087695 4.883878 30.289515
260 2 5.867446 7.252434 26.583845
261 2 13.207980 9.435113 29.647436
262 2 10.554116 8.554332 33.000000
263 2 1.858813 0.788226 33.000000
264 2 14.876571 3.365870 33.000000
265 2 12.705070 6.503817 29.169019
266 2 0.766958 6.475892 28.205900
267 2 16.733770 7.403549 28.095716
268 1 15.167996 9.398810 24.862226
269 1 8.614545 3.433224 24.976916
270 1 2.613811 5.633193 25.316548
271 1 5.990035 6.583760 25.858708
272 1 10.668644 9.347416 27.304737
273 1 15.686636 2.255477 24.536360
274 1 12.314880 5.719608 26.222353
275 1 2.906406 6.930269 23.500000
276 1 10.523238 8.886390 24.974738
277 1 5.691884 4.246230 23.500000
278 1 2.206947 1.198553 23.861333
279 1 1.460344 3.446575 29.622412
280 1 16.434522 1.636660 28.422006
281 1 3.150683 0.435422 25.124979
282 1 3.818659 6.321992 29.969019
283 1 5.215956 6.391732 28.478707
284 1 1.736286 3.182353 28.450741
285 1 1.313394 3.292814 28.336348
286 1 9.040470 7.615810 25.029090
287 1 3.465912 9.977317 27.860479
288 1 16.758026 9.509722 26.966238
289 1 7.593977 8.562575 29.019204
290 1 2.032534 1.026610 31.056948
291 1 4.184336 2.138949 30.967998
292 1 6.191321 1.524858 32.414305
293 1 1.514525 0.120233 30.895294
294 1 16.344914 8.917159 33.000000
295 1 9.757636 0.295960 33.000000
296 1 9.164483 7.694268 29.729286
297 1 10.183379 5.312783 31.119843
298 1 3.898066 8.542606 31.583130
299 1 12.076541 6.830632 32.759573
300 1 9.276916 9.717899 31.969499
