300
Atoms. Timestep: 0
212923296              4.329695                     5               34.3065
212923296              4.329695                     5               36.7665
212923296              4.329695                     5               39.2265
212923296              4.329695                     5               41.6865
212923296              4.329695                     5               44.1465
212923296              4.329695                     5               46.6065
212923296              4.329695                     5               49.0665
212923296              6.471157                     5               33.0765
212923296              6.471157                     5               35.5365
212923296              6.471157                     5               37.9965
212923296              6.471157                     5               40.4565
212923296              6.471157                     5               42.9165
212923296              6.471157                     5               45.3765
212923296              6.471157                     5               47.8365
212923296               5.75745                     5               34.3065
212923296               5.75745                     5               36.7665
212923296               5.75745                     5               39.2265
212923296               5.75745                     5               41.6865
212923296               5.75745                     5               44.1465
212923296               5.75745                     5               46.6065
212923296               5.75745                     5               49.0665
212923296              7.898913                     5               33.0765
212923296              7.898913                     5               35.5365
212923296              7.898913                     5               37.9965
212923296              7.898913                     5               40.4565
212923296              7.898913                     5               42.9165
212923296              7.898913                     5               45.3765
212923296              7.898913                     5               47.8365
212923296               8.61262                     5               34.3065
212923296               8.61262                     5               36.7665
212923264               8.61262                     5               39.2265
212923264               8.61262                     5               41.6865
212923264               8.61262                     5               44.1465
212923264               8.61262                     5               46.6065
212923264               8.61262                     5               49.0665
212923264             10.754082                     5               33.0765
212923264             10.754082                     5               35.5365
212923264             10.754082                     5               37.9965
212923264             10.754082                     5               40.4565
212923264             10.754082                     5               42.9165
212923264             10.754082                     5               45.3765
212923264             10.754082                     5               47.8365
212923264             10.040375                     5               34.3065
212923264             10.040375                     5               36.7665
212923264             10.040375                     5               39.2265
212923264             10.040375                     5               41.6865
212923264             10.040375                     5               44.1465
212923264             10.040375                     5               46.6065
212923264             10.040375                     5               49.0665
212923264             12.181838                     5               33.0765
212923264             12.181838                     5               35.5365
212923264             12.181838                     5               37.9965
212923264             12.181838                     5               40.4565
212923264             12.181838                     5               42.9165
212923264             12.181838                     5               45.3765
212923264             12.181838                     5               47.8365
212923264             12.895545                     5               34.3065
212923264             12.895545                     5               36.7665
212923264             12.895545                     5               39.2265
212923264             12.895545                     5               41.6865
212923264             12.895545                     5               44.1465
212923264             12.895545                     5               46.6065
212923264             12.895545                     5               49.0665
212923264             15.037007                     5               33.0765
212923264             15.037007                     5               35.5365
212923264             15.037007                     5               37.9965
212923264             15.037007                     5               40.4565
212923264             15.037007                     5               42.9165
212923264             15.037007                     5               45.3765
212923264             15.037007                     5               47.8365
212923264               14.3233                     5               34.3065
212923264               14.3233                     5               36.7665
212923264               14.3233                     5               39.2265
212923264               14.3233                     5               41.6865
212923264               14.3233                     5               44.1465
212923264               14.3233                     5               46.6065
212923264               14.3233                     5               49.0665
212923264             16.464763                     5               33.0765
212923264             16.464763                     5               35.5365
212923264             16.464763                     5               37.9965
212923264             16.464763                     5               40.4565
212923264             16.464763                     5               42.9165
212923264             16.464763                     5               45.3765
212923264             16.464763                     5               47.8365
212923264               0.04677                     5               34.3065
212923264               0.04677                     5               36.7665
212923264               0.04677                     5               39.2265
212923264               0.04677                     5               41.6865
212923264               0.04677                     5               44.1465
212923264               0.04677                     5               46.6065
212923264               0.04677                     5               49.0665
212923264              2.188232                     5               33.0765
212923264              2.188232                     5               35.5365
212923264              2.188232                     5               37.9965
212923264              2.188232                     5               40.4565
212923264              2.188232                     5               42.9165
212923264              2.188232                     5               45.3765
212923264              2.188232                     5               47.8365
212923264              1.474525                     5               34.3065
212923264              1.474525                     5               36.7665
212923264              1.474525                     5               39.2265
212923264              1.474525                     5               41.6865
212923264              1.474525                     5               44.1465
212923264              1.474525                     5               46.6065
212923264              1.474525                     5               49.0665
212923264              3.615988                     5               33.0765
212923264              3.615988                     5               35.5365
212923264              3.615988                     5               37.9965
212923264              3.615988                     5               40.4565
212923264              3.615988                     5               42.9165
212923264              3.615988                     5               45.3765
212923264              3.615988                     5               47.8365
212923296              3.759552                     5     0.054000000000002
212923296              6.327422                     5     0.054000000000002
212923296              8.044704                     5    0.0549999999999997
212923296             10.610347                     5     0.054000000000002
212923296             12.327629                     5    0.0549999999999997
212923296             14.893272                     5     0.054000000000002
212923296             16.610554                     5    0.0549999999999997
212923296              2.044497                     5     0.054000000000002
212923264             17.091783                     5                8.5655
212923264             17.091783                     5               12.8265
212923264             17.091783                     5               17.0875
212923264             17.091783                     5                21.348
212923264             17.091783                     5                 9.986
212923264             17.091783                     5               14.2465
212923264             17.091783                     5               18.5075
212923264             17.091783                     5               22.7685
212923264             15.868066                     5                10.696
212923264             15.868066                     5                14.957
212923264             15.868066                     5               19.2175
212923264             15.868066                     5               23.4785
212923264             15.868066                     5                7.8555
212923264             15.868066                     5               12.1165
212923264             15.868066                     5                16.377
212923264             15.868066                     5                20.638
212923264             14.644348                     5                8.5655
212923264             14.644348                     5               12.8265
212923264             14.644348                     5               17.0875
212923264             14.644348                     5                21.348
212923264             13.420631                     5                10.696
212923264             13.420631                     5                14.957
212923264             13.420631                     5               19.2175
212923264             13.420631                     5               23.4785
212923264             14.644348                     5                 9.986
212923264             14.644348                     5               14.2465
212923264             14.644348                     5               18.5075
212923264             14.644348                     5               22.7685
212923264             13.420631                     5                7.8555
212923264             13.420631                     5               12.1165
212923264             13.420631                     5                16.377
212923264             13.420631                     5                20.638
212923264             12.197085                     5                8.5655
212923264             12.197085                     5               12.8265
212923264             12.197085                     5               17.0875
212923264             12.197085                     5                21.348
212923264             10.973368                     5                10.696
212923264             10.973368                     5                14.957
212923264             10.973368                     5               19.2175
212923264             10.973368                     5               23.4785
212923264             12.197085                     5                 9.986
212923264             12.197085                     5               14.2465
212923264             12.197085                     5               18.5075
212923264             12.197085                     5               22.7685
212923264             10.973368                     5                7.8555
212923264             10.973368                     5               12.1165
212923264             10.973368                     5                16.377
212923264             10.973368                     5                20.638
212923264               9.74965                     5                8.5655
212923264               9.74965                     5               12.8265
212923264               9.74965                     5               17.0875
212923264               9.74965                     5                21.348
212923264              8.525933                     5                10.696
212923264              8.525933                     5                14.957
212923264              8.525933                     5               19.2175
212923264              8.525933                     5               23.4785
212923264               9.74965                     5                 9.986
212923264               9.74965                     5               14.2465
212923264               9.74965                     5               18.5075
212923264               9.74965                     5               22.7685
212923264              8.525933                     5                7.8555
212923264              8.525933                     5               12.1165
212923264              8.525933                     5                16.377
212923264              8.525933                     5                20.638
212923264              7.302216                     5                8.5655
212923264              7.302216                     5               12.8265
212923264              7.302216                     5               17.0875
212923264              7.302216                     5                21.348
212923264              6.078498                     5                10.696
212923264              6.078498                     5                14.957
212923264              6.078498                     5               19.2175
212923264              6.078498                     5               23.4785
212923264              7.302216                     5                 9.986
212923264              7.302216                     5               14.2465
212923264              7.302216                     5               18.5075
212923264              7.302216                     5               22.7685
212923264              6.078498                     5                7.8555
212923264              6.078498                     5               12.1165
212923264              6.078498                     5                16.377
212923264              6.078498                     5                20.638
212923264              4.854781                     5                8.5655
212923264              4.854781                     5               12.8265
212923264              4.854781                     5               17.0875
212923264              4.854781                     5                21.348
212923264              3.631235                     5                10.696
212923264              3.631235                     5                14.957
212923264              3.631235                     5               19.2175
212923264              3.631235                     5               23.4785
212923264              4.854781                     5                 9.986
212923264              4.854781                     5               14.2465
212923264              4.854781                     5               18.5075
212923264              4.854781                     5               22.7685
212923264              3.631235                     5                7.8555
212923264              3.631235                     5               12.1165
212923264              3.631235                     5                16.377
212923264              3.631235                     5                20.638
212923264              2.407518                     5                8.5655
212923264              2.407518                     5               12.8265
212923264              2.407518                     5               17.0875
212923264              2.407518                     5                21.348
212923264                1.1838                     5                10.696
212923264                1.1838                     5                14.957
212923264                1.1838                     5               19.2175
212923264                1.1838                     5               23.4785
212923264              2.407518                     5                 9.986
212923264              2.407518                     5               14.2465
212923264              2.407518                     5               18.5075
212923264              2.407518                     5               22.7685
212923264                1.1838                     5                7.8555
212923264                1.1838                     5               12.1165
212923264                1.1838                     5                16.377
212923264                1.1838                     5                20.638
212923296             15.865667                     5                6.7155
212923296              13.42303                     5                6.7155
212923296             10.975766                     5                6.7155
212923296              8.528332                     5                6.7155
212923296              6.080897                     5                6.7155
212923296              3.633634                     5                6.7155
212923296              1.181402                     5                6.7155
212923296              9.753568              2.108783             24.866011
212923296             14.272756              1.811347                  23.5
212923296              2.401528               0.83467             26.915437
212923296               4.16989              1.683781             25.062251
212923296              9.177216              2.369796              26.51873
212923296             16.894264              2.625406             25.895713
212923296             11.185424              6.227055             26.038405
212923296             10.189292              7.833748             24.297644
212923296              12.81953              4.809383                  23.5
212923296              1.043711              0.569613             26.495917
212923296              4.765513              4.857964             28.074562
212923296              3.893207              7.251207             25.756923
212923296             15.608445              8.455217             25.138256
212923296              8.168816              2.969318             25.964217
212923296             11.182695              5.993791             26.917278
212923296               2.92546               6.17505             25.154509
212923296             12.973365              9.739271             26.839596
212923296               8.53398              7.795917             26.957844
212923296              1.733181              1.171943             30.941469
212923296              2.150907              3.381023             30.168829
212923296             14.912935              4.514188             31.545072
212923296              3.222969              5.432223             27.130405
212923296               1.19689              5.739911             32.871414
212923296             12.520207              2.597298             31.730464
212923296              6.552108              5.177487             29.783034
212923296              9.336367              6.293289             28.205509
212923296              5.295946              6.127938             30.682079
212923296             13.040142              8.044518             28.191076
212923264              6.708824              2.468882             24.961412
212923264              3.299893              3.981586             26.085595
212923264              7.329125              5.719608             25.383608
212923264              6.823454              4.582822             24.425525
212923264              2.543636              5.633193             25.625492
212923264             10.098581              9.589834             23.920469
212923264              10.45195               8.88639             23.945975
212923264             15.809034              9.842255             25.503489
212923264              9.284313              2.581215             24.378995
212923264             13.804546              6.930269             24.367769
212923264             10.390935              8.962106             26.606256
212923264              4.312968              1.458064             27.465956
212923264              4.012144              2.723465             27.192521
212923264              6.056689              6.321992              29.99786
212923264              7.341323              8.337692             26.287686
212923264              4.057596              9.432464             30.082364
212923264              8.690689              8.119617             30.435985
212923264             12.824264              8.485248             26.975165
212923264              6.704494              9.018834             24.965747
212923264               0.40785              7.619924             25.826886
212923264              7.895509              6.974223             27.279952
212923264              3.113303              9.138941             31.052107
212923264               0.98595              2.500763             30.894857
212923264              15.59167              3.292814             29.336551
212923264              3.264969              5.828379             31.933158
212923264             10.265423              9.717899             32.786208
212923264              4.132849              8.936322                    33
212923264              7.593851              9.866191             29.019339
212923264             10.551745              0.726895             30.007037
212923264             11.228871              0.572604                    33
212923264              7.693849              8.084866             31.677381
212923264              1.390525              7.068336             32.142824
212923264                6.3228              8.542606             32.302294
300
Atoms. Timestep: 10
212923296      4.32661970736985                     5      34.3063723822283
212923296      4.32661970736985                     5      36.7663723822283
212923296      4.32661970736985                     5      39.2263723822283
212923296      4.32661970736985                     5      41.6863723822283
212923296      4.32661970736985                     5      44.1463723822283
212923296      4.32661970736985                     5      46.6063723822283
212923296      4.32661970736985                     5      49.0663723822283
212923296      6.46808170736985                     5      33.0763723822283
212923296      6.46808170736985                     5      35.5363723822283
212923296      6.46808170736985                     5      37.9963723822283
212923296      6.46808170736985                     5      40.4563723822283
212923296      6.46808170736985                     5      42.9163723822283
212923296      6.46808170736985                     5      45.3763723822283
212923296      6.46808170736985                     5      47.8363723822283
212923296      5.75437470736985                     5      34.3063723822283
212923296      5.75437470736985                     5      36.7663723822283
212923296      5.75437470736985                     5      39.2263723822283
212923296      5.75437470736985                     5      41.6863723822283
212923296      5.75437470736985                     5      44.1463723822283
212923296      5.75437470736985                     5      46.6063723822283
212923296      5.75437470736985                     5      49.0663723822283
212923296      7.89583770736985                     5      33.0763723822283
212923296      7.89583770736985                     5      35.5363723822283
212923296      7.89583770736985                     5      37.9963723822283
212923296      7.89583770736985                     5      40.4563723822283
212923296      7.89583770736985                     5      42.9163723822283
212923296      7.89583770736985                     5      45.3763723822283
212923296      7.89583770736985                     5      47.8363723822283
212923296      8.60954470736985                     5      34.3063723822283
212923296      8.60954470736985                     5      36.7663723822283
212923264      8.60954470736985                     5      39.2263723822283
212923264      8.60954470736985                     5      41.6863723822283
212923264      8.60954470736985                     5      44.1463723822283
212923264      8.60954470736985                     5      46.6063723822283
212923264      8.60954470736985                     5      49.0663723822283
212923264      10.7510067073699                     5      33.0763723822283
212923264      10.7510067073699                     5      35.5363723822283
212923264      10.7510067073699                     5      37.9963723822283
212923264      10.7510067073699                     5      40.4563723822283
212923264      10.7510067073699                     5      42.9163723822283
212923264      10.7510067073699                     5      45.3763723822283
212923264      10.7510067073699                     5      47.8363723822283
212923264      10.0372997073698                     5      34.3063723822283
212923264      10.0372997073698                     5      36.7663723822283
212923264      10.0372997073698                     5      39.2263723822283
212923264      10.0372997073698                     5      41.6863723822283
212923264      10.0372997073698                     5      44.1463723822283
212923264      10.0372997073698                     5      46.6063723822283
212923264      10.0372997073698                     5      49.0663723822283
212923264      12.1787627073699                     5      33.0763723822283
212923264      12.1787627073699                     5      35.5363723822283
212923264      12.1787627073699                     5      37.9963723822283
212923264      12.1787627073699                     5      40.4563723822283
212923264      12.1787627073699                     5      42.9163723822283
212923264      12.1787627073699                     5      45.3763723822283
212923264      12.1787627073699                     5      47.8363723822283
212923264      12.8924697073698                     5      34.3063723822283
212923264      12.8924697073698                     5      36.7663723822283
212923264      12.8924697073698                     5      39.2263723822283
212923264      12.8924697073698                     5      41.6863723822283
212923264      12.8924697073698                     5      44.1463723822283
212923264      12.8924697073698                     5      46.6063723822283
212923264      12.8924697073698                     5      49.0663723822283
212923264      15.0339317073698                     5      33.0763723822283
212923264      15.0339317073698                     5      35.5363723822283
212923264      15.0339317073698                     5      37.9963723822283
212923264      15.0339317073698                     5      40.4563723822283
212923264      15.0339317073698                     5      42.9163723822283
212923264      15.0339317073698                     5      45.3763723822283
212923264      15.0339317073698                     5      47.8363723822283
212923264      14.3202247073698                     5      34.3063723822283
212923264      14.3202247073698                     5      36.7663723822283
212923264      14.3202247073698                     5      39.2263723822283
212923264      14.3202247073698                     5      41.6863723822283
212923264      14.3202247073698                     5      44.1463723822283
212923264      14.3202247073698                     5      46.6063723822283
212923264      14.3202247073698                     5      49.0663723822283
212923264      16.4616877073698                     5      33.0763723822283
212923264      16.4616877073698                     5      35.5363723822283
212923264      16.4616877073698                     5      37.9963723822283
212923264      16.4616877073698                     5      40.4563723822283
212923264      16.4616877073698                     5      42.9163723822283
212923264      16.4616877073698                     5      45.3763723822283
212923264      16.4616877073698                     5      47.8363723822283
212923264    0.0436947073698508                     5      34.3063723822283
212923264    0.0436947073698508                     5      36.7663723822283
212923264    0.0436947073698508                     5      39.2263723822283
212923264    0.0436947073698508                     5      41.6863723822283
212923264    0.0436947073698508                     5      44.1463723822283
212923264    0.0436947073698508                     5      46.6063723822283
212923264    0.0436947073698508                     5      49.0663723822283
212923264      2.18515670736985                     5      33.0763723822283
212923264      2.18515670736985                     5      35.5363723822283
212923264      2.18515670736985                     5      37.9963723822283