search structure

300 atoms
2  atom types

0   17.131700 xlo xhi
0   10.000000 ylo yhi
0   50.000000 zlo zhi

Atoms

1 2 4.329695 5.000000 34.306500
2 2 4.329695 5.000000 36.766500
3 2 4.329695 5.000000 39.226500
4 2 4.329695 5.000000 41.686500
5 2 4.329695 5.000000 44.146500
6 2 4.329695 5.000000 46.606500
7 2 4.329695 5.000000 49.066500
8 2 6.471157 5.000000 33.076500
9 2 6.471157 5.000000 35.536500
10 2 6.471157 5.000000 37.996500
11 2 6.471157 5.000000 40.456500
12 2 6.471157 5.000000 42.916500
13 2 6.471157 5.000000 45.376500
14 2 6.471157 5.000000 47.836500
15 2 5.757450 5.000000 34.306500
16 2 5.757450 5.000000 36.766500
17 2 5.757450 5.000000 39.226500
18 2 5.757450 5.000000 41.686500
19 2 5.757450 5.000000 44.146500
20 2 5.757450 5.000000 46.606500
21 2 5.757450 5.000000 49.066500
22 2 7.898913 5.000000 33.076500
23 2 7.898913 5.000000 35.536500
24 2 7.898913 5.000000 37.996500
25 2 7.898913 5.000000 40.456500
26 2 7.898913 5.000000 42.916500
27 2 7.898913 5.000000 45.376500
28 2 7.898913 5.000000 47.836500
29 2 8.612620 5.000000 34.306500
30 2 8.612620 5.000000 36.766500
31 1 8.612620 5.000000 39.226500
32 1 8.612620 5.000000 41.686500
33 1 8.612620 5.000000 44.146500
34 1 8.612620 5.000000 46.606500
35 1 8.612620 5.000000 49.066500
36 1 10.754082 5.000000 33.076500
37 1 10.754082 5.000000 35.536500
38 1 10.754082 5.000000 37.996500
39 1 10.754082 5.000000 40.456500
40 1 10.754082 5.000000 42.916500
41 1 10.754082 5.000000 45.376500
42 1 10.754082 5.000000 47.836500
43 1 10.040375 5.000000 34.306500
44 1 10.040375 5.000000 36.766500
45 1 10.040375 5.000000 39.226500
46 1 10.040375 5.000000 41.686500
47 1 10.040375 5.000000 44.146500
48 1 10.040375 5.000000 46.606500
49 1 10.040375 5.000000 49.066500
50 1 12.181838 5.000000 33.076500
51 1 12.181838 5.000000 35.536500
52 1 12.181838 5.000000 37.996500
53 1 12.181838 5.000000 40.456500
54 1 12.181838 5.000000 42.916500
55 1 12.181838 5.000000 45.376500
56 1 12.181838 5.000000 47.836500
57 1 12.895545 5.000000 34.306500
58 1 12.895545 5.000000 36.766500
59 1 12.895545 5.000000 39.226500
60 1 12.895545 5.000000 41.686500
61 1 12.895545 5.000000 44.146500
62 1 12.895545 5.000000 46.606500
63 1 12.895545 5.000000 49.066500
64 1 15.037007 5.000000 33.076500
65 1 15.037007 5.000000 35.536500
66 1 15.037007 5.000000 37.996500
67 1 15.037007 5.000000 40.456500
68 1 15.037007 5.000000 42.916500
69 1 15.037007 5.000000 45.376500
70 1 15.037007 5.000000 47.836500
71 1 14.323300 5.000000 34.306500
72 1 14.323300 5.000000 36.766500
73 1 14.323300 5.000000 39.226500
74 1 14.323300 5.000000 41.686500
75 1 14.323300 5.000000 44.146500
76 1 14.323300 5.000000 46.606500
77 1 14.323300 5.000000 49.066500
78 1 16.464763 5.000000 33.076500
79 1 16.464763 5.000000 35.536500
80 1 16.464763 5.000000 37.996500
81 1 16.464763 5.000000 40.456500
82 1 16.464763 5.000000 42.916500
83 1 16.464763 5.000000 45.376500
84 1 16.464763 5.000000 47.836500
85 1 0.046770 5.000000 34.306500
86 1 0.046770 5.000000 36.766500
87 1 0.046770 5.000000 39.226500
88 1 0.046770 5.000000 41.686500
89 1 0.046770 5.000000 44.146500
90 1 0.046770 5.000000 46.606500
91 1 0.046770 5.000000 49.066500
92 1 2.188232 5.000000 33.076500
93 1 2.188232 5.000000 35.536500
94 1 2.188232 5.000000 37.996500
95 1 2.188232 5.000000 40.456500
96 1 2.188232 5.000000 42.916500
97 1 2.188232 5.000000 45.376500
98 1 2.188232 5.000000 47.836500
99 1 1.474525 5.000000 34.306500
100 1 1.474525 5.000000 36.766500
101 1 1.474525 5.000000 39.226500
102 1 1.474525 5.000000 41.686500
103 1 1.474525 5.000000 44.146500
104 1 1.474525 5.000000 46.606500
105 1 1.474525 5.000000 49.066500
106 1 3.615988 5.000000 33.076500
107 1 3.615988 5.000000 35.536500
108 1 3.615988 5.000000 37.996500
109 1 3.615988 5.000000 40.456500
110 1 3.615988 5.000000 42.916500
111 1 3.615988 5.000000 45.376500
112 1 3.615988 5.000000 47.836500
113 2 3.759552 5.000000 50.054000
114 2 6.327422 5.000000 50.054000
115 2 8.044704 5.000000 50.055000
116 2 10.610347 5.000000 50.054000
117 2 12.327629 5.000000 50.055000
118 2 14.893272 5.000000 50.054000
119 2 16.610554 5.000000 50.055000
120 2 2.044497 5.000000 50.054000
121 1 -0.039917 5.000000 8.565500
122 1 -0.039917 5.000000 12.826500
123 1 -0.039917 5.000000 17.087500
124 1 -0.039917 5.000000 21.348000
125 1 -0.039917 5.000000 9.986000
126 1 -0.039917 5.000000 14.246500
127 1 -0.039917 5.000000 18.507500
128 1 -0.039917 5.000000 22.768500
129 1 15.868066 5.000000 10.696000
130 1 15.868066 5.000000 14.957000
131 1 15.868066 5.000000 19.217500
132 1 15.868066 5.000000 23.478500
133 1 15.868066 5.000000 7.855500
134 1 15.868066 5.000000 12.116500
135 1 15.868066 5.000000 16.377000
136 1 15.868066 5.000000 20.638000
137 1 14.644348 5.000000 8.565500
138 1 14.644348 5.000000 12.826500
139 1 14.644348 5.000000 17.087500
140 1 14.644348 5.000000 21.348000
141 1 13.420631 5.000000 10.696000
142 1 13.420631 5.000000 14.957000
143 1 13.420631 5.000000 19.217500
144 1 13.420631 5.000000 23.478500
145 1 14.644348 5.000000 9.986000
146 1 14.644348 5.000000 14.246500
147 1 14.644348 5.000000 18.507500
148 1 14.644348 5.000000 22.768500
149 1 13.420631 5.000000 7.855500
150 1 13.420631 5.000000 12.116500
151 1 13.420631 5.000000 16.377000
152 1 13.420631 5.000000 20.638000
153 1 12.197085 5.000000 8.565500
154 1 12.197085 5.000000 12.826500
155 1 12.197085 5.000000 17.087500
156 1 12.197085 5.000000 21.348000
157 1 10.973368 5.000000 10.696000
158 1 10.973368 5.000000 14.957000
159 1 10.973368 5.000000 19.217500
160 1 10.973368 5.000000 23.478500
161 1 12.197085 5.000000 9.986000
162 1 12.197085 5.000000 14.246500
163 1 12.197085 5.000000 18.507500
164 1 12.197085 5.000000 22.768500
165 1 10.973368 5.000000 7.855500
166 1 10.973368 5.000000 12.116500
167 1 10.973368 5.000000 16.377000
168 1 10.973368 5.000000 20.638000
169 1 9.749650 5.000000 8.565500
170 1 9.749650 5.000000 12.826500
171 1 9.749650 5.000000 17.087500
172 1 9.749650 5.000000 21.348000
173 1 8.525933 5.000000 10.696000
174 1 8.525933 5.000000 14.957000
175 1 8.525933 5.000000 19.217500
176 1 8.525933 5.000000 23.478500
177 1 9.749650 5.000000 9.986000
178 1 9.749650 5.000000 14.246500
179 1 9.749650 5.000000 18.507500
180 1 9.749650 5.000000 22.768500
181 1 8.525933 5.000000 7.855500
182 1 8.525933 5.000000 12.116500
183 1 8.525933 5.000000 16.377000
184 1 8.525933 5.000000 20.638000
185 1 7.302216 5.000000 8.565500
186 1 7.302216 5.000000 12.826500
187 1 7.302216 5.000000 17.087500
188 1 7.302216 5.000000 21.348000
189 1 6.078498 5.000000 10.696000
190 1 6.078498 5.000000 14.957000
191 1 6.078498 5.000000 19.217500
192 1 6.078498 5.000000 23.478500
193 1 7.302216 5.000000 9.986000
194 1 7.302216 5.000000 14.246500
195 1 7.302216 5.000000 18.507500
196 1 7.302216 5.000000 22.768500
197 1 6.078498 5.000000 7.855500
198 1 6.078498 5.000000 12.116500
199 1 6.078498 5.000000 16.377000
200 1 6.078498 5.000000 20.638000
201 1 4.854781 5.000000 8.565500
202 1 4.854781 5.000000 12.826500
203 1 4.854781 5.000000 17.087500
204 1 4.854781 5.000000 21.348000
205 1 3.631235 5.000000 10.696000
206 1 3.631235 5.000000 14.957000
207 1 3.631235 5.000000 19.217500
208 1 3.631235 5.000000 23.478500
209 1 4.854781 5.000000 9.986000
210 1 4.854781 5.000000 14.246500
211 1 4.854781 5.000000 18.507500
212 1 4.854781 5.000000 22.768500
213 1 3.631235 5.000000 7.855500
214 1 3.631235 5.000000 12.116500
215 1 3.631235 5.000000 16.377000
216 1 3.631235 5.000000 20.638000
217 1 2.407518 5.000000 8.565500
218 1 2.407518 5.000000 12.826500
219 1 2.407518 5.000000 17.087500
220 1 2.407518 5.000000 21.348000
221 1 1.183800 5.000000 10.696000
222 1 1.183800 5.000000 14.957000
223 1 1.183800 5.000000 19.217500
224 1 1.183800 5.000000 23.478500
225 1 2.407518 5.000000 9.986000
226 1 2.407518 5.000000 14.246500
227 1 2.407518 5.000000 18.507500
228 1 2.407518 5.000000 22.768500
229 1 1.183800 5.000000 7.855500
230 1 1.183800 5.000000 12.116500
231 1 1.183800 5.000000 16.377000
232 1 1.183800 5.000000 20.638000
233 2 15.865667 5.000000 6.715500
234 2 13.423030 5.000000 6.715500
235 2 10.975766 5.000000 6.715500
236 2 8.528332 5.000000 6.715500
237 2 6.080897 5.000000 6.715500
238 2 3.633634 5.000000 6.715500
239 2 1.181402 5.000000 6.715500
240 2 9.753568 2.108783 24.866011
241 2 14.272756 1.811347 23.500000
242 2 2.401528 0.834670 26.915437
243 2 4.169890 1.683781 25.062251
244 2 9.177216 2.369796 26.518730
245 2 16.894264 2.625406 25.895713
246 2 11.185424 6.227055 26.038405
247 2 10.189292 7.833748 24.297644
248 2 12.819530 4.809383 23.500000
249 2 1.043711 0.569613 26.495917
250 2 4.765513 4.857964 28.074562
251 2 3.893207 7.251207 25.756923
252 2 15.608445 8.455217 25.138256
253 2 8.168816 2.969318 25.964217
254 2 11.182695 5.993791 26.917278
255 2 2.925460 6.175050 25.154509
256 2 12.973365 9.739271 26.839596
257 2 8.533980 7.795917 26.957844
258 2 1.733181 1.171943 30.941469
259 2 2.150907 3.381023 30.168829
260 2 14.912935 4.514188 31.545072
261 2 3.222969 5.432223 27.130405
262 2 1.196890 5.739911 32.871414
263 2 12.520207 2.597298 31.730464
264 2 6.552108 5.177487 29.783034
265 2 9.336367 6.293289 28.205509
266 2 5.295946 6.127938 30.682079
267 2 13.040142 8.044518 28.191076
268 1 6.708824 2.468882 24.961412
269 1 3.299893 3.981586 26.085595
270 1 7.329125 5.719608 25.383608
271 1 6.823454 4.582822 24.425525
272 1 2.543636 5.633193 25.625492
273 1 10.098581 9.589834 23.920469
274 1 10.451950 8.886390 23.945975
275 1 15.809034 9.842255 25.503489
276 1 9.284313 2.581215 24.378995
277 1 13.804546 6.930269 24.367769
278 1 10.390935 8.962106 26.606256
279 1 4.312968 1.458064 27.465956
280 1 4.012144 2.723465 27.192521
281 1 6.056689 6.321992 29.997860
282 1 7.341323 8.337692 26.287686
283 1 4.057596 9.432464 30.082364
284 1 8.690689 8.119617 30.435985
285 1 12.824264 8.485248 26.975165
286 1 6.704494 9.018834 24.965747
287 1 0.407850 7.619924 25.826886
288 1 7.895509 6.974223 27.279952
289 1 3.113303 9.138941 31.052107
290 1 0.985950 2.500763 30.894857
291 1 15.591670 3.292814 29.336551
292 1 3.264969 5.828379 31.933158
293 1 10.265423 9.717899 32.786208
294 1 4.132849 8.936322 33.000000
295 1 7.593851 9.866191 29.019339
296 1 10.551745 0.726895 30.007037
297 1 11.228871 0.572604 33.000000
298 1 7.693849 8.084866 31.677381
299 1 1.390525 7.068336 32.142824
300 1 6.322800 8.542606 32.302294
