300
Atoms. Timestep: 0
228852640             16.582518                     5             35.618596
228852640             16.582518                     5             38.078596
228852640             16.582518                     5             40.538596
228852640             16.582518                     5             42.998596
228852640             16.582518                     5             45.458596
228852640             16.582518                     5             47.918596
228852640             16.582518                     5     0.378596000000002
228852640              1.592281                     5             34.388596
228852640              1.592281                     5             36.848596
228852640              1.592281                     5             39.308596
228852640              1.592281                     5             41.768596
228852640              1.592281                     5             44.228596
228852640              1.592281                     5             46.688596
228852640              1.592281                     5             49.148596
228852640              0.878574                     5             35.618596
228852640              0.878574                     5             38.078596
228852640              0.878574                     5             40.538596
228852640              0.878574                     5             42.998596
228852640              0.878574                     5             45.458596
228852640              0.878574                     5             47.918596
228852640              0.878574                     5     0.378596000000002
228852640              3.020037                     5             34.388596
228852640              3.020037                     5             36.848596
228852640              3.020037                     5             39.308596
228852640              3.020037                     5             41.768596
228852640              3.020037                     5             44.228596
228852640              3.020037                     5             46.688596
228852640              3.020037                     5             49.148596
228852640              3.733743                     5             35.618596
228852640              3.733743                     5             38.078596
228852608              3.733743                     5             40.538596
228852608              3.733743                     5             42.998596
228852608              3.733743                     5             45.458596
228852608              3.733743                     5             47.918596
228852608              3.733743                     5     0.378596000000002
228852608              5.875206                     5             34.388596
228852608              5.875206                     5             36.848596
228852608              5.875206                     5             39.308596
228852608              5.875206                     5             41.768596
228852608              5.875206                     5             44.228596
228852608              5.875206                     5             46.688596
228852608              5.875206                     5             49.148596
228852608              5.161499                     5             35.618596
228852608              5.161499                     5             38.078596
228852608              5.161499                     5             40.538596
228852608              5.161499                     5             42.998596
228852608              5.161499                     5             45.458596
228852608              5.161499                     5             47.918596
228852608              5.161499                     5     0.378596000000002
228852608              7.302962                     5             34.388596
228852608              7.302962                     5             36.848596
228852608              7.302962                     5             39.308596
228852608              7.302962                     5             41.768596
228852608              7.302962                     5             44.228596
228852608              7.302962                     5             46.688596
228852608              7.302962                     5             49.148596
228852608              8.016668                     5             35.618596
228852608              8.016668                     5             38.078596
228852608              8.016668                     5             40.538596
228852608              8.016668                     5             42.998596
228852608              8.016668                     5             45.458596
228852608              8.016668                     5             47.918596
228852608              8.016668                     5     0.378596000000002
228852608             10.158131                     5             34.388596
228852608             10.158131                     5             36.848596
228852608             10.158131                     5             39.308596
228852608             10.158131                     5             41.768596
228852608             10.158131                     5             44.228596
228852608             10.158131                     5             46.688596
228852608             10.158131                     5             49.148596
228852608              9.444424                     5             35.618596
228852608              9.444424                     5             38.078596
228852608              9.444424                     5             40.538596
228852608              9.444424                     5             42.998596
228852608              9.444424                     5             45.458596
228852608              9.444424                     5             47.918596
228852608              9.444424                     5     0.378596000000002
228852608             11.585887                     5             34.388596
228852608             11.585887                     5             36.848596
228852608             11.585887                     5             39.308596
228852608             11.585887                     5             41.768596
228852608             11.585887                     5             44.228596
228852608             11.585887                     5             46.688596
228852608             11.585887                     5             49.148596
228852608             12.299593                     5             35.618596
228852608             12.299593                     5             38.078596
228852608             12.299593                     5             40.538596
228852608             12.299593                     5             42.998596
228852608             12.299593                     5             45.458596
228852608             12.299593                     5             47.918596
228852608             12.299593                     5     0.378596000000002
228852608             14.441056                     5             34.388596
228852608             14.441056                     5             36.848596
228852608             14.441056                     5             39.308596
228852608             14.441056                     5             41.768596
228852608             14.441056                     5             44.228596
228852608             14.441056                     5             46.688596
228852608             14.441056                     5             49.148596
228852608             13.727349                     5             35.618596
228852608             13.727349                     5             38.078596
228852608             13.727349                     5             40.538596
228852608             13.727349                     5             42.998596
228852608             13.727349                     5             45.458596
228852608             13.727349                     5             47.918596
228852608             13.727349                     5     0.378596000000002
228852608             15.868812                     5             34.388596
228852608             15.868812                     5             36.848596
228852608             15.868812                     5             39.308596
228852608             15.868812                     5             41.768596
228852608             15.868812                     5             44.228596
228852608             15.868812                     5             46.688596
228852608             15.868812                     5             49.148596
228852640             16.012375                     5              1.366096
228852640              1.448546                     5              1.366096
228852640              3.165827                     5              1.367096
228852640              5.731471                     5              1.366096
228852640              7.448752                     5              1.367096
228852640             10.014396                     5              1.366096
228852640             11.731677                     5              1.367096
228852640             14.297321                     5              1.366096
228852608             17.091783                     5                8.5655
228852608             17.091783                     5               12.8265
228852608             17.091783                     5               17.0875
228852608             17.091783                     5                21.348
228852608             17.091783                     5                 9.986
228852608             17.091783                     5               14.2465
228852608             17.091783                     5               18.5075
228852608             17.091783                     5               22.7685
228852608             15.868066                     5                10.696
228852608             15.868066                     5                14.957
228852608             15.868066                     5               19.2175
228852608             15.868066                     5               23.4785
228852608             15.868066                     5                7.8555
228852608             15.868066                     5               12.1165
228852608             15.868066                     5                16.377
228852608             15.868066                     5                20.638
228852608             14.644348                     5                8.5655
228852608             14.644348                     5               12.8265
228852608             14.644348                     5               17.0875
228852608             14.644348                     5                21.348
228852608             13.420631                     5                10.696
228852608             13.420631                     5                14.957
228852608             13.420631                     5               19.2175
228852608             13.420631                     5               23.4785
228852608             14.644348                     5                 9.986
228852608             14.644348                     5               14.2465
228852608             14.644348                     5               18.5075
228852608             14.644348                     5               22.7685
228852608             13.420631                     5                7.8555
228852608             13.420631                     5               12.1165
228852608             13.420631                     5                16.377
228852608             13.420631                     5                20.638
228852608             12.197085                     5                8.5655
228852608             12.197085                     5               12.8265
228852608             12.197085                     5               17.0875
228852608             12.197085                     5                21.348
228852608             10.973368                     5                10.696
228852608             10.973368                     5                14.957
228852608             10.973368                     5               19.2175
228852608             10.973368                     5               23.4785
228852608             12.197085                     5                 9.986
228852608             12.197085                     5               14.2465
228852608             12.197085                     5               18.5075
228852608             12.197085                     5               22.7685
228852608             10.973368                     5                7.8555
228852608             10.973368                     5               12.1165
228852608             10.973368                     5                16.377
228852608             10.973368                     5                20.638
228852608               9.74965                     5                8.5655
228852608               9.74965                     5               12.8265
228852608               9.74965                     5               17.0875
228852608               9.74965                     5                21.348
228852608              8.525933                     5                10.696
228852608              8.525933                     5                14.957
228852608              8.525933                     5               19.2175
228852608              8.525933                     5               23.4785
228852608               9.74965                     5                 9.986
228852608               9.74965                     5               14.2465
228852608               9.74965                     5               18.5075
228852608               9.74965                     5               22.7685
228852608              8.525933                     5                7.8555
228852608              8.525933                     5               12.1165
228852608              8.525933                     5                16.377
228852608              8.525933                     5                20.638
228852608              7.302216                     5                8.5655
228852608              7.302216                     5               12.8265
228852608              7.302216                     5               17.0875
228852608              7.302216                     5                21.348
228852608              6.078498                     5                10.696
228852608              6.078498                     5                14.957
228852608              6.078498                     5               19.2175
228852608              6.078498                     5               23.4785
228852608              7.302216                     5                 9.986
228852608              7.302216                     5               14.2465
228852608              7.302216                     5               18.5075
228852608              7.302216                     5               22.7685
228852608              6.078498                     5                7.8555
228852608              6.078498                     5               12.1165
228852608              6.078498                     5                16.377
228852608              6.078498                     5                20.638
228852608              4.854781                     5                8.5655
228852608              4.854781                     5               12.8265
228852608              4.854781                     5               17.0875
228852608              4.854781                     5                21.348
228852608              3.631235                     5                10.696
228852608              3.631235                     5                14.957
228852608              3.631235                     5               19.2175
228852608              3.631235                     5               23.4785
228852608              4.854781                     5                 9.986
228852608              4.854781                     5               14.2465
228852608              4.854781                     5               18.5075
228852608              4.854781                     5               22.7685
228852608              3.631235                     5                7.8555
228852608              3.631235                     5               12.1165
228852608              3.631235                     5                16.377
228852608              3.631235                     5                20.638
228852608              2.407518                     5                8.5655
228852608              2.407518                     5               12.8265
228852608              2.407518                     5               17.0875
228852608              2.407518                     5                21.348
228852608                1.1838                     5                10.696
228852608                1.1838                     5                14.957
228852608                1.1838                     5               19.2175
228852608                1.1838                     5               23.4785
228852608              2.407518                     5                 9.986
228852608              2.407518                     5               14.2465
228852608              2.407518                     5               18.5075
228852608              2.407518                     5               22.7685
228852608                1.1838                     5                7.8555
228852608                1.1838                     5               12.1165
228852608                1.1838                     5                16.377
228852608                1.1838                     5                20.638
228852640             15.865667                     5                6.7155
228852640              13.42303                     5                6.7155
228852640             10.975766                     5                6.7155
228852640              8.528332                     5                6.7155
228852640              6.080897                     5                6.7155
228852640              3.633634                     5                6.7155
228852640              1.181402                     5                6.7155
228852640             11.364056              4.612299             26.636995
228852640              0.507785              8.685976             24.319549
228852640              7.232768              4.668062             32.485361
228852640              9.621231              7.362803             34.103514
228852640             11.824367              5.041929             32.207041
228852640             10.710842              6.819624             23.994135
228852640              0.747623              8.611565             25.339292
228852640              0.193427              4.721229             25.986807
228852640             12.864418              6.952379             32.921451
228852640              8.930391              8.307292             31.029296
228852640              8.525372              9.793261             26.988221
228852640              3.033903              0.037476             29.618799
228852640             16.358561              6.495155             25.960193
228852640             10.067443              9.489785             30.662686
228852640               7.21912              6.620425             26.304933
228852640               2.48506              1.032836             28.172117
228852640              3.664995              8.130603             29.329925
228852640              3.939811              6.418097             29.473812
228852640              1.868932              4.739226             31.400388
228852640              5.993268              9.722369             33.367021
228852640              15.03036              4.410588             32.649193
228852640               0.07657              6.280828              33.89091
228852640             15.127538              8.666888             28.964678
228852640             11.789983              3.148964             26.218947
228852640              3.224511              8.136705             29.634721
228852640               5.26823              2.252128             26.172976
228852640              5.128973              8.128642             26.630004
228852640              0.362268              1.524054             32.500359
228852608              0.690893              2.810061             28.976916
228852608              15.93063              9.559343             27.906255
228852608              7.917034              2.168844             28.487937
228852608              0.450564              5.518864             26.550755
228852608             12.285825              2.084309             24.901215
228852608              8.441957              7.048296             27.406264
228852608             14.423985              0.178676             29.794205
228852608              7.981183              0.272111             33.278422
228852608             14.817866               1.12968             27.405134
228852608              1.136924              8.290181             32.856582
228852608             16.338478              2.766104             32.910104
228852608                 7.326              4.843598             25.401599
228852608             16.560393              9.177535             32.871014
228852608              7.614937              7.958686             26.928595
228852608              1.268053              8.059246             23.646742
228852608              6.477878              1.975353             29.546742
228852608              3.674629               8.47614             27.198115
228852608             15.343714              5.360546             32.034414
228852608              1.290634              7.291505             29.434229
228852608              10.99727              7.357595             33.252575
228852608             16.821501              4.572833             28.649622
228852608              9.770936              3.944321             30.730935
228852608              8.196155               4.34502              29.59855
228852608              8.330856              6.105506             31.503369
228852608              9.577178              6.286421             24.876956
228852608              3.971418              1.144131             34.167348
228852608              7.045534              9.700471             24.021495
228852608              8.359646              4.938501             24.390504
228852608              15.78812              6.741311             28.933413
228852608              7.306519              9.690295             29.157551
228852608             15.562924              3.229912             24.867268
228852608             16.779296               6.91928             26.315691
228852608              5.184451               1.42661             29.611235
300
Atoms. Timestep: 10
228852640      16.5824440195101                     5      35.6217284924636
228852640      16.5824440195101                     5      38.0817284924636
228852640      16.5824440195101                     5      40.5417284924636
228852640      16.5824440195101                     5      43.0017284924636
228852640      16.5824440195101                     5      45.4617284924636
228852640      16.5824440195101                     5      47.9217284924636
228852640      16.5824440195101                     5     0.381728492463585
228852640      1.59220701951014                     5      34.3917284924636
228852640      1.59220701951014                     5      36.8517284924636
228852640      1.59220701951014                     5      39.3117284924636
228852640      1.59220701951014                     5      41.7717284924636
228852640      1.59220701951014                     5      44.2317284924636
228852640      1.59220701951014                     5      46.6917284924636
228852640      1.59220701951014                     5      49.1517284924636
228852640     0.878500019510141                     5      35.6217284924636
228852640     0.878500019510141                     5      38.0817284924636
228852640     0.878500019510141                     5      40.5417284924636
228852640     0.878500019510141                     5      43.0017284924636
228852640     0.878500019510141                     5      45.4617284924636
228852640     0.878500019510141                     5      47.9217284924636
228852640     0.878500019510141                     5     0.381728492463585
228852640      3.01996301951014                     5      34.3917284924636
228852640      3.01996301951014                     5      36.8517284924636
228852640      3.01996301951014                     5      39.3117284924636
228852640      3.01996301951014                     5      41.7717284924636
228852640      3.01996301951014                     5      44.2317284924636
228852640      3.01996301951014                     5      46.6917284924636
228852640      3.01996301951014                     5      49.1517284924636
228852640      3.73366901951014                     5      35.6217284924636
228852640      3.73366901951014                     5      38.0817284924636
228852608      3.73366901951014                     5      40.5417284924636
228852608      3.73366901951014                     5      43.0017284924636
228852608      3.73366901951014                     5      45.4617284924636
228852608      3.73366901951014                     5      47.9217284924636
228852608      3.73366901951014                     5     0.381728492463585
228852608      5.87513201951014                     5      34.3917284924636
228852608      5.87513201951014                     5      36.8517284924636
228852608      5.87513201951014                     5      39.3117284924636
228852608      5.87513201951014                     5      41.7717284924636
228852608      5.87513201951014                     5      44.2317284924636
228852608      5.87513201951014                     5      46.6917284924636
228852608      5.87513201951014                     5      49.1517284924636
228852608      5.16142501951014                     5      35.6217284924636
228852608      5.16142501951014                     5      38.0817284924636
228852608      5.16142501951014                     5      40.5417284924636
228852608      5.16142501951014                     5      43.0017284924636
228852608      5.16142501951014                     5      45.4617284924636
228852608      5.16142501951014                     5      47.9217284924636
228852608      5.16142501951014                     5     0.381728492463585
228852608      7.30288801951014                     5      34.3917284924636
228852608      7.30288801951014                     5      36.8517284924636
228852608      7.30288801951014                     5      39.3117284924636
228852608      7.30288801951014                     5      41.7717284924636
228852608      7.30288801951014                     5      44.2317284924636
228852608      7.30288801951014                     5      46.6917284924636
228852608      7.30288801951014                     5      49.1517284924636
228852608      8.01659401951014                     5      35.6217284924636
228852608      8.01659401951014                     5      38.0817284924636
228852608      8.01659401951014                     5      40.5417284924636
228852608      8.01659401951014                     5      43.0017284924636
228852608      8.01659401951014                     5      45.4617284924636
228852608      8.01659401951014                     5      47.9217284924636
228852608      8.01659401951014                     5     0.381728492463585
228852608      10.1580570195101                     5      34.3917284924636
228852608      10.1580570195101                     5      36.8517284924636
228852608      10.1580570195101                     5      39.3117284924636
228852608      10.1580570195101                     5      41.7717284924636
228852608      10.1580570195101                     5      44.2317284924636
228852608      10.1580570195101                     5      46.6917284924636
228852608      10.1580570195101                     5      49.1517284924636
228852608      9.44435001951014                     5      35.6217284924636
228852608      9.44435001951014                     5      38.0817284924636
228852608      9.44435001951014                     5      40.5417284924636
228852608      9.44435001951014                     5      43.0017284924636
228852608      9.44435001951014                     5      45.4617284924636
228852608      9.44435001951014                     5      47.9217284924636
228852608      9.44435001951014                     5     0.381728492463585
228852608      11.5858130195101                     5      34.3917284924636
228852608      11.5858130195101                     5      36.8517284924636
228852608      11.5858130195101                     5      39.3117284924636
228852608      11.5858130195101                     5      41.7717284924636
228852608      11.5858130195101                     5      44.2317284924636
228852608      11.5858130195101                     5      46.6917284924636
228852608      11.5858130195101                     5      49.1517284924636
228852608      12.2995190195101                     5      35.6217284924636
228852608      12.2995190195101                     5      38.0817284924636
228852608      12.2995190195101                     5      40.5417284924636
228852608      12.2995190195101                     5      43.0017284924636
228852608      12.2995190195101                     5      45.4617284924636
228852608      12.2995190195101                     5      47.9217284924636
228852608      12.2995190195101                     5     0.381728492463585
228852608      14.4409820195101                     5      34.3917284924636
228852608      14.4409820195101                     5      36.8517284924636
228852608      14.4409820195101                     5      39.3117284924636