search structure

300 atoms
2  atom types

0   17.131700 xlo xhi
0   10.000000 ylo yhi
0   50.000000 zlo zhi

Atoms

1 2 16.582518 5.000000 35.618596
2 2 16.582518 5.000000 38.078596
3 2 16.582518 5.000000 40.538596
4 2 16.582518 5.000000 42.998596
5 2 16.582518 5.000000 45.458596
6 2 16.582518 5.000000 47.918596
7 2 16.582518 5.000000 50.378596
8 2 1.592281 5.000000 34.388596
9 2 1.592281 5.000000 36.848596
10 2 1.592281 5.000000 39.308596
11 2 1.592281 5.000000 41.768596
12 2 1.592281 5.000000 44.228596
13 2 1.592281 5.000000 46.688596
14 2 1.592281 5.000000 49.148596
15 2 0.878574 5.000000 35.618596
16 2 0.878574 5.000000 38.078596
17 2 0.878574 5.000000 40.538596
18 2 0.878574 5.000000 42.998596
19 2 0.878574 5.000000 45.458596
20 2 0.878574 5.000000 47.918596
21 2 0.878574 5.000000 50.378596
22 2 3.020037 5.000000 34.388596
23 2 3.020037 5.000000 36.848596
24 2 3.020037 5.000000 39.308596
25 2 3.020037 5.000000 41.768596
26 2 3.020037 5.000000 44.228596
27 2 3.020037 5.000000 46.688596
28 2 3.020037 5.000000 49.148596
29 2 3.733743 5.000000 35.618596
30 2 3.733743 5.000000 38.078596
31 1 3.733743 5.000000 40.538596
32 1 3.733743 5.000000 42.998596
33 1 3.733743 5.000000 45.458596
34 1 3.733743 5.000000 47.918596
35 1 3.733743 5.000000 50.378596
36 1 5.875206 5.000000 34.388596
37 1 5.875206 5.000000 36.848596
38 1 5.875206 5.000000 39.308596
39 1 5.875206 5.000000 41.768596
40 1 5.875206 5.000000 44.228596
41 1 5.875206 5.000000 46.688596
42 1 5.875206 5.000000 49.148596
43 1 5.161499 5.000000 35.618596
44 1 5.161499 5.000000 38.078596
45 1 5.161499 5.000000 40.538596
46 1 5.161499 5.000000 42.998596
47 1 5.161499 5.000000 45.458596
48 1 5.161499 5.000000 47.918596
49 1 5.161499 5.000000 50.378596
50 1 7.302962 5.000000 34.388596
51 1 7.302962 5.000000 36.848596
52 1 7.302962 5.000000 39.308596
53 1 7.302962 5.000000 41.768596
54 1 7.302962 5.000000 44.228596
55 1 7.302962 5.000000 46.688596
56 1 7.302962 5.000000 49.148596
57 1 8.016668 5.000000 35.618596
58 1 8.016668 5.000000 38.078596
59 1 8.016668 5.000000 40.538596
60 1 8.016668 5.000000 42.998596
61 1 8.016668 5.000000 45.458596
62 1 8.016668 5.000000 47.918596
63 1 8.016668 5.000000 50.378596
64 1 10.158131 5.000000 34.388596
65 1 10.158131 5.000000 36.848596
66 1 10.158131 5.000000 39.308596
67 1 10.158131 5.000000 41.768596
68 1 10.158131 5.000000 44.228596
69 1 10.158131 5.000000 46.688596
70 1 10.158131 5.000000 49.148596
71 1 9.444424 5.000000 35.618596
72 1 9.444424 5.000000 38.078596
73 1 9.444424 5.000000 40.538596
74 1 9.444424 5.000000 42.998596
75 1 9.444424 5.000000 45.458596
76 1 9.444424 5.000000 47.918596
77 1 9.444424 5.000000 50.378596
78 1 11.585887 5.000000 34.388596
79 1 11.585887 5.000000 36.848596
80 1 11.585887 5.000000 39.308596
81 1 11.585887 5.000000 41.768596
82 1 11.585887 5.000000 44.228596
83 1 11.585887 5.000000 46.688596
84 1 11.585887 5.000000 49.148596
85 1 12.299593 5.000000 35.618596
86 1 12.299593 5.000000 38.078596
87 1 12.299593 5.000000 40.538596
88 1 12.299593 5.000000 42.998596
89 1 12.299593 5.000000 45.458596
90 1 12.299593 5.000000 47.918596
91 1 12.299593 5.000000 50.378596
92 1 14.441056 5.000000 34.388596
93 1 14.441056 5.000000 36.848596
94 1 14.441056 5.000000 39.308596
95 1 14.441056 5.000000 41.768596
96 1 14.441056 5.000000 44.228596
97 1 14.441056 5.000000 46.688596
98 1 14.441056 5.000000 49.148596
99 1 13.727349 5.000000 35.618596
100 1 13.727349 5.000000 38.078596
101 1 13.727349 5.000000 40.538596
102 1 13.727349 5.000000 42.998596
103 1 13.727349 5.000000 45.458596
104 1 13.727349 5.000000 47.918596
105 1 13.727349 5.000000 50.378596
106 1 15.868812 5.000000 34.388596
107 1 15.868812 5.000000 36.848596
108 1 15.868812 5.000000 39.308596
109 1 15.868812 5.000000 41.768596
110 1 15.868812 5.000000 44.228596
111 1 15.868812 5.000000 46.688596
112 1 15.868812 5.000000 49.148596
113 2 16.012375 5.000000 51.366096
114 2 1.448546 5.000000 51.366096
115 2 3.165827 5.000000 51.367096
116 2 5.731471 5.000000 51.366096
117 2 7.448752 5.000000 51.367096
118 2 10.014396 5.000000 51.366096
119 2 11.731677 5.000000 51.367096
120 2 14.297321 5.000000 51.366096
121 1 -0.039917 5.000000 8.565500
122 1 -0.039917 5.000000 12.826500
123 1 -0.039917 5.000000 17.087500
124 1 -0.039917 5.000000 21.348000
125 1 -0.039917 5.000000 9.986000
126 1 -0.039917 5.000000 14.246500
127 1 -0.039917 5.000000 18.507500
128 1 -0.039917 5.000000 22.768500
129 1 15.868066 5.000000 10.696000
130 1 15.868066 5.000000 14.957000
131 1 15.868066 5.000000 19.217500
132 1 15.868066 5.000000 23.478500
133 1 15.868066 5.000000 7.855500
134 1 15.868066 5.000000 12.116500
135 1 15.868066 5.000000 16.377000
136 1 15.868066 5.000000 20.638000
137 1 14.644348 5.000000 8.565500
138 1 14.644348 5.000000 12.826500
139 1 14.644348 5.000000 17.087500
140 1 14.644348 5.000000 21.348000
141 1 13.420631 5.000000 10.696000
142 1 13.420631 5.000000 14.957000
143 1 13.420631 5.000000 19.217500
144 1 13.420631 5.000000 23.478500
145 1 14.644348 5.000000 9.986000
146 1 14.644348 5.000000 14.246500
147 1 14.644348 5.000000 18.507500
148 1 14.644348 5.000000 22.768500
149 1 13.420631 5.000000 7.855500
150 1 13.420631 5.000000 12.116500
151 1 13.420631 5.000000 16.377000
152 1 13.420631 5.000000 20.638000
153 1 12.197085 5.000000 8.565500
154 1 12.197085 5.000000 12.826500
155 1 12.197085 5.000000 17.087500
156 1 12.197085 5.000000 21.348000
157 1 10.973368 5.000000 10.696000
158 1 10.973368 5.000000 14.957000
159 1 10.973368 5.000000 19.217500
160 1 10.973368 5.000000 23.478500
161 1 12.197085 5.000000 9.986000
162 1 12.197085 5.000000 14.246500
163 1 12.197085 5.000000 18.507500
164 1 12.197085 5.000000 22.768500
165 1 10.973368 5.000000 7.855500
166 1 10.973368 5.000000 12.116500
167 1 10.973368 5.000000 16.377000
168 1 10.973368 5.000000 20.638000
169 1 9.749650 5.000000 8.565500
170 1 9.749650 5.000000 12.826500
171 1 9.749650 5.000000 17.087500
172 1 9.749650 5.000000 21.348000
173 1 8.525933 5.000000 10.696000
174 1 8.525933 5.000000 14.957000
175 1 8.525933 5.000000 19.217500
176 1 8.525933 5.000000 23.478500
177 1 9.749650 5.000000 9.986000
178 1 9.749650 5.000000 14.246500
179 1 9.749650 5.000000 18.507500
180 1 9.749650 5.000000 22.768500
181 1 8.525933 5.000000 7.855500
182 1 8.525933 5.000000 12.116500
183 1 8.525933 5.000000 16.377000
184 1 8.525933 5.000000 20.638000
185 1 7.302216 5.000000 8.565500
186 1 7.302216 5.000000 12.826500
187 1 7.302216 5.000000 17.087500
188 1 7.302216 5.000000 21.348000
189 1 6.078498 5.000000 10.696000
190 1 6.078498 5.000000 14.957000
191 1 6.078498 5.000000 19.217500
192 1 6.078498 5.000000 23.478500
193 1 7.302216 5.000000 9.986000
194 1 7.302216 5.000000 14.246500
195 1 7.302216 5.000000 18.507500
196 1 7.302216 5.000000 22.768500
197 1 6.078498 5.000000 7.855500
198 1 6.078498 5.000000 12.116500
199 1 6.078498 5.000000 16.377000
200 1 6.078498 5.000000 20.638000
201 1 4.854781 5.000000 8.565500
202 1 4.854781 5.000000 12.826500
203 1 4.854781 5.000000 17.087500
204 1 4.854781 5.000000 21.348000
205 1 3.631235 5.000000 10.696000
206 1 3.631235 5.000000 14.957000
207 1 3.631235 5.000000 19.217500
208 1 3.631235 5.000000 23.478500
209 1 4.854781 5.000000 9.986000
210 1 4.854781 5.000000 14.246500
211 1 4.854781 5.000000 18.507500
212 1 4.854781 5.000000 22.768500
213 1 3.631235 5.000000 7.855500
214 1 3.631235 5.000000 12.116500
215 1 3.631235 5.000000 16.377000
216 1 3.631235 5.000000 20.638000
217 1 2.407518 5.000000 8.565500
218 1 2.407518 5.000000 12.826500
219 1 2.407518 5.000000 17.087500
220 1 2.407518 5.000000 21.348000
221 1 1.183800 5.000000 10.696000
222 1 1.183800 5.000000 14.957000
223 1 1.183800 5.000000 19.217500
224 1 1.183800 5.000000 23.478500
225 1 2.407518 5.000000 9.986000
226 1 2.407518 5.000000 14.246500
227 1 2.407518 5.000000 18.507500
228 1 2.407518 5.000000 22.768500
229 1 1.183800 5.000000 7.855500
230 1 1.183800 5.000000 12.116500
231 1 1.183800 5.000000 16.377000
232 1 1.183800 5.000000 20.638000
233 2 15.865667 5.000000 6.715500
234 2 13.423030 5.000000 6.715500
235 2 10.975766 5.000000 6.715500
236 2 8.528332 5.000000 6.715500
237 2 6.080897 5.000000 6.715500
238 2 3.633634 5.000000 6.715500
239 2 1.181402 5.000000 6.715500
240 2 11.364056 4.612299 26.636995
241 2 0.507785 8.685976 24.319549
242 2 7.232768 4.668062 32.485361
243 2 9.621231 7.362803 34.103514
244 2 11.824367 5.041929 32.207041
245 2 10.710842 6.819624 23.994135
246 2 0.747623 8.611565 25.339292
247 2 0.193427 4.721229 25.986807
248 2 12.864418 6.952379 32.921451
249 2 8.930391 8.307292 31.029296
250 2 8.525372 9.793261 26.988221
251 2 3.033903 0.037476 29.618799
252 2 16.358561 6.495155 25.960193
253 2 10.067443 9.489785 30.662686
254 2 7.219120 6.620425 26.304933
255 2 2.485060 1.032836 28.172117
256 2 3.664995 8.130603 29.329925
257 2 3.939811 6.418097 29.473812
258 2 1.868932 4.739226 31.400388
259 2 5.993268 9.722369 33.367021
260 2 15.030360 4.410588 32.649193
261 2 0.076570 6.280828 33.890910
262 2 15.127538 8.666888 28.964678
263 2 11.789983 3.148964 26.218947
264 2 3.224511 8.136705 29.634721
265 2 5.268230 2.252128 26.172976
266 2 5.128973 8.128642 26.630004
267 2 0.362268 1.524054 32.500359
268 1 0.690893 2.810061 28.976916
269 1 15.930630 9.559343 27.906255
270 1 7.917034 2.168844 28.487937
271 1 0.450564 5.518864 26.550755
272 1 12.285825 2.084309 24.901215
273 1 8.441957 7.048296 27.406264
274 1 14.423985 0.178676 29.794205
275 1 7.981183 0.272111 33.278422
276 1 14.817866 1.129680 27.405134
277 1 1.136924 8.290181 32.856582
278 1 16.338478 2.766104 32.910104
279 1 7.326000 4.843598 25.401599
280 1 16.560393 9.177535 32.871014
281 1 7.614937 7.958686 26.928595
282 1 1.268053 8.059246 23.646742
283 1 6.477878 1.975353 29.546742
284 1 3.674629 8.476140 27.198115
285 1 15.343714 5.360546 32.034414
286 1 1.290634 7.291505 29.434229
287 1 10.997270 7.357595 33.252575
288 1 16.821501 4.572833 28.649622
289 1 9.770936 3.944321 30.730935
290 1 8.196155 4.345020 29.598550
291 1 8.330856 6.105506 31.503369
292 1 9.577178 6.286421 24.876956
293 1 3.971418 1.144131 34.167348
294 1 7.045534 9.700471 24.021495
295 1 8.359646 4.938501 24.390504
296 1 15.788120 6.741311 28.933413
297 1 7.306519 9.690295 29.157551
298 1 15.562924 3.229912 24.867268
299 1 16.779296 6.919280 26.315691
300 1 5.184451 1.426610 29.611235
