300
Atoms. Timestep: 0
290870176             15.543123                     5             36.368404
290870176             15.543123                     5             38.828404
290870176             15.543123                     5             41.288404
290870176             15.543123                     5             43.748404
290870176             15.543123                     5             46.208404
290870176             15.543123                     5             48.668404
290870176             15.543123                     5              1.128404
290870176              0.552885                     5             35.138404
290870176              0.552885                     5             37.598404
290870176              0.552885                     5             40.058404
290870176              0.552885                     5             42.518404
290870176              0.552885                     5             44.978404
290870176              0.552885                     5             47.438404
290870176              0.552885                     5             49.898404
290870176             16.970879                     5             36.368404
290870176             16.970879                     5             38.828404
290870176             16.970879                     5             41.288404
290870176             16.970879                     5             43.748404
290870176             16.970879                     5             46.208404
290870176             16.970879                     5             48.668404
290870176             16.970879                     5              1.128404
290870176              1.980641                     5             35.138404
290870176              1.980641                     5             37.598404
290870176              1.980641                     5             40.058404
290870176              1.980641                     5             42.518404
290870176              1.980641                     5             44.978404
290870176              1.980641                     5             47.438404
290870176              1.980641                     5             49.898404
290870176              2.694348                     5             36.368404
290870176              2.694348                     5             38.828404
290870144              2.694348                     5             41.288404
290870144              2.694348                     5             43.748404
290870144              2.694348                     5             46.208404
290870144              2.694348                     5             48.668404
290870144              2.694348                     5              1.128404
290870144               4.83581                     5             35.138404
290870144               4.83581                     5             37.598404
290870144               4.83581                     5             40.058404
290870144               4.83581                     5             42.518404
290870144               4.83581                     5             44.978404
290870144               4.83581                     5             47.438404
290870144               4.83581                     5             49.898404
290870144              4.122104                     5             36.368404
290870144              4.122104                     5             38.828404
290870144              4.122104                     5             41.288404
290870144              4.122104                     5             43.748404
290870144              4.122104                     5             46.208404
290870144              4.122104                     5             48.668404
290870144              4.122104                     5              1.128404
290870144              6.263566                     5             35.138404
290870144              6.263566                     5             37.598404
290870144              6.263566                     5             40.058404
290870144              6.263566                     5             42.518404
290870144              6.263566                     5             44.978404
290870144              6.263566                     5             47.438404
290870144              6.263566                     5             49.898404
290870144              6.977273                     5             36.368404
290870144              6.977273                     5             38.828404
290870144              6.977273                     5             41.288404
290870144              6.977273                     5             43.748404
290870144              6.977273                     5             46.208404
290870144              6.977273                     5             48.668404
290870144              6.977273                     5              1.128404
290870144              9.118735                     5             35.138404
290870144              9.118735                     5             37.598404
290870144              9.118735                     5             40.058404
290870144              9.118735                     5             42.518404
290870144              9.118735                     5             44.978404
290870144              9.118735                     5             47.438404
290870144              9.118735                     5             49.898404
290870144              8.405029                     5             36.368404
290870144              8.405029                     5             38.828404
290870144              8.405029                     5             41.288404
290870144              8.405029                     5             43.748404
290870144              8.405029                     5             46.208404
290870144              8.405029                     5             48.668404
290870144              8.405029                     5              1.128404
290870144             10.546491                     5             35.138404
290870144             10.546491                     5             37.598404
290870144             10.546491                     5             40.058404
290870144             10.546491                     5             42.518404
290870144             10.546491                     5             44.978404
290870144             10.546491                     5             47.438404
290870144             10.546491                     5             49.898404
290870144             11.260198                     5             36.368404
290870144             11.260198                     5             38.828404
290870144             11.260198                     5             41.288404
290870144             11.260198                     5             43.748404
290870144             11.260198                     5             46.208404
290870144             11.260198                     5             48.668404
290870144             11.260198                     5              1.128404
290870144              13.40166                     5             35.138404
290870144              13.40166                     5             37.598404
290870144              13.40166                     5             40.058404
290870144              13.40166                     5             42.518404
290870144              13.40166                     5             44.978404
290870144              13.40166                     5             47.438404
290870144              13.40166                     5             49.898404
290870144             12.687954                     5             36.368404
290870144             12.687954                     5             38.828404
290870144             12.687954                     5             41.288404
290870144             12.687954                     5             43.748404
290870144             12.687954                     5             46.208404
290870144             12.687954                     5             48.668404
290870144             12.687954                     5              1.128404
290870144             14.829416                     5             35.138404
290870144             14.829416                     5             37.598404
290870144             14.829416                     5             40.058404
290870144             14.829416                     5             42.518404
290870144             14.829416                     5             44.978404
290870144             14.829416                     5             47.438404
290870144             14.829416                     5             49.898404
290870176              14.97298                     5              2.115904
290870176               0.40915                     5              2.115904
290870176              2.126432                     5              2.116904
290870176              4.692075                     5              2.115904
290870176              6.409357                     5              2.116904
290870176                 8.975                     5              2.115904
290870176             10.692282                     5              2.116904
290870176             13.257925                     5              2.115904
290870144             17.091783                     5                8.5655
290870144             17.091783                     5               12.8265
290870144             17.091783                     5               17.0875
290870144             17.091783                     5                21.348
290870144             17.091783                     5                 9.986
290870144             17.091783                     5               14.2465
290870144             17.091783                     5               18.5075
290870144             17.091783                     5               22.7685
290870144             15.868066                     5                10.696
290870144             15.868066                     5                14.957
290870144             15.868066                     5               19.2175
290870144             15.868066                     5               23.4785
290870144             15.868066                     5                7.8555
290870144             15.868066                     5               12.1165
290870144             15.868066                     5                16.377
290870144             15.868066                     5                20.638
290870144             14.644348                     5                8.5655
290870144             14.644348                     5               12.8265
290870144             14.644348                     5               17.0875
290870144             14.644348                     5                21.348
290870144             13.420631                     5                10.696
290870144             13.420631                     5                14.957
290870144             13.420631                     5               19.2175
290870144             13.420631                     5               23.4785
290870144             14.644348                     5                 9.986
290870144             14.644348                     5               14.2465
290870144             14.644348                     5               18.5075
290870144             14.644348                     5               22.7685
290870144             13.420631                     5                7.8555
290870144             13.420631                     5               12.1165
290870144             13.420631                     5                16.377
290870144             13.420631                     5                20.638
290870144             12.197085                     5                8.5655
290870144             12.197085                     5               12.8265
290870144             12.197085                     5               17.0875
290870144             12.197085                     5                21.348
290870144             10.973368                     5                10.696
290870144             10.973368                     5                14.957
290870144             10.973368                     5               19.2175
290870144             10.973368                     5               23.4785
290870144             12.197085                     5                 9.986
290870144             12.197085                     5               14.2465
290870144             12.197085                     5               18.5075
290870144             12.197085                     5               22.7685
290870144             10.973368                     5                7.8555
290870144             10.973368                     5               12.1165
290870144             10.973368                     5                16.377
290870144             10.973368                     5                20.638
290870144               9.74965                     5                8.5655
290870144               9.74965                     5               12.8265
290870144               9.74965                     5               17.0875
290870144               9.74965                     5                21.348
290870144              8.525933                     5                10.696
290870144              8.525933                     5                14.957
290870144              8.525933                     5               19.2175
290870144              8.525933                     5               23.4785
290870144               9.74965                     5                 9.986
290870144               9.74965                     5               14.2465
290870144               9.74965                     5               18.5075
290870144               9.74965                     5               22.7685
290870144              8.525933                     5                7.8555
290870144              8.525933                     5               12.1165
290870144              8.525933                     5                16.377
290870144              8.525933                     5                20.638
290870144              7.302216                     5                8.5655
290870144              7.302216                     5               12.8265
290870144              7.302216                     5               17.0875
290870144              7.302216                     5                21.348
290870144              6.078498                     5                10.696
290870144              6.078498                     5                14.957
290870144              6.078498                     5               19.2175
290870144              6.078498                     5               23.4785
290870144              7.302216                     5                 9.986
290870144              7.302216                     5               14.2465
290870144              7.302216                     5               18.5075
290870144              7.302216                     5               22.7685
290870144              6.078498                     5                7.8555
290870144              6.078498                     5               12.1165
290870144              6.078498                     5                16.377
290870144              6.078498                     5                20.638
290870144              4.854781                     5                8.5655
290870144              4.854781                     5               12.8265
290870144              4.854781                     5               17.0875
290870144              4.854781                     5                21.348
290870144              3.631235                     5                10.696
290870144              3.631235                     5                14.957
290870144              3.631235                     5               19.2175
290870144              3.631235                     5               23.4785
290870144              4.854781                     5                 9.986
290870144              4.854781                     5               14.2465
290870144              4.854781                     5               18.5075
290870144              4.854781                     5               22.7685
290870144              3.631235                     5                7.8555
290870144              3.631235                     5               12.1165
290870144              3.631235                     5                16.377
290870144              3.631235                     5                20.638
290870144              2.407518                     5                8.5655
290870144              2.407518                     5               12.8265
290870144              2.407518                     5               17.0875
290870144              2.407518                     5                21.348
290870144                1.1838                     5                10.696
290870144                1.1838                     5                14.957
290870144                1.1838                     5               19.2175
290870144                1.1838                     5               23.4785
290870144              2.407518                     5                 9.986
290870144              2.407518                     5               14.2465
290870144              2.407518                     5               18.5075
290870144              2.407518                     5               22.7685
290870144                1.1838                     5                7.8555
290870144                1.1838                     5               12.1165
290870144                1.1838                     5                16.377
290870144                1.1838                     5                20.638
290870176             15.865667                     5                6.7155
290870176              13.42303                     5                6.7155
290870176             10.975766                     5                6.7155
290870176              8.528332                     5                6.7155
290870176              6.080897                     5                6.7155
290870176              3.633634                     5                6.7155
290870176              1.181402                     5                6.7155
290870176               0.28875              1.566478             26.170084
290870176             10.473403               5.18709             24.983344
290870176              3.346085              2.419677             28.311756
290870176              0.073883              1.313778             25.741227
290870176             10.937515              2.757323             27.753245
290870176             14.530337              5.318971             29.606336
290870176              0.235703              5.304881             27.842624
290870176              6.547884              6.363086                  23.5
290870176             14.173475              9.254265             28.006853
290870176              5.994574               4.86592             29.749257
290870176              3.926176              5.663524             29.266349
290870176              4.515102              8.297245             26.121818
290870176              8.265171              4.140572             29.715222
290870176              13.27003              3.113771             31.857208
290870176              3.051583              4.373897             27.549601
290870176             11.416255              5.139277              27.29068
290870176              2.780526              8.198928             31.121201
290870176               8.53398              7.795917             25.391091
290870176              3.070119              1.509462             30.489065
290870176              6.161119              4.360075             32.133698
290870176              4.603975              7.998942             31.203513
290870176              3.821427                4.1727             33.592282
290870176              3.902531              6.969916             31.496299
290870176              7.089268              8.403602             34.655049
290870176             12.430534              6.812517             35.053069
290870176              0.559849              2.711415             31.415961
290870176              9.403693              3.109707             30.716036
290870176             10.278696              6.178631             29.922535
290870144             14.032882              9.295428             27.174218
290870144              8.383196              7.113432              24.49074
290870144             12.962445              0.308996             27.623854
290870144              0.474172              3.436723              23.81619
290870144              3.227778              6.094484             27.904177
290870144             16.534518              1.691075             26.214601
290870144              2.442623              9.770134             27.360492
290870144             13.539683               9.66339             25.851366
290870144             13.258243              5.676102             23.708314
290870144              8.098403              8.394325             25.839668
290870144             16.210186              8.962106             26.269323
290870144             13.142525              4.856777             28.927573
290870144              7.090448              4.963785             29.479088
290870144              2.854463              6.248542             30.317767
290870144              4.897241              5.452592             31.906123
290870144             13.382051              8.325875             32.493163
290870144              8.030123              4.132164             30.130847
290870144               7.22785              5.616988             31.265243
290870144              7.875988              4.395174             31.846322
290870144              5.608945              0.240212              31.25038
290870144              0.460331                2.6352             30.505487
290870144             12.853266              1.112975             26.751735
290870144              4.684292              3.737475              28.93783
290870144              2.457203              4.600555             35.061904
290870144              3.264969              1.814209             34.585396
290870144              6.894893              5.117306             32.632943
290870144              0.270803              8.936322             30.214625
290870144               8.09168              0.474021             34.440414
290870144              0.953879              2.383563              34.21915
290870144              5.286506              5.252972             33.100092
290870144             15.212884              2.999986             30.480374
290870144              3.592145              2.806434             31.347009
290870144             12.311611              6.883756             30.252666
300
Atoms. Timestep: 10
290870176      15.5399540245816                     5      36.3680209893045
290870176      15.5399540245816                     5      38.8280209893045
290870176      15.5399540245816                     5      41.2880209893045
290870176      15.5399540245816                     5      43.7480209893045
290870176      15.5399540245816                     5      46.2080209893045
290870176      15.5399540245816                     5      48.6680209893045
290870176      15.5399540245816                     5      1.12802098930446
290870176     0.549716024581587                     5      35.1380209893045
290870176     0.549716024581587                     5      37.5980209893045
290870176     0.549716024581587                     5      40.0580209893045
290870176     0.549716024581587                     5      42.5180209893045
290870176     0.549716024581587                     5      44.9780209893045
290870176     0.549716024581587                     5      47.4380209893045
290870176     0.549716024581587                     5      49.8980209893045
290870176      16.9677100245816                     5      36.3680209893045
290870176      16.9677100245816                     5      38.8280209893045
290870176      16.9677100245816                     5      41.2880209893045
290870176      16.9677100245816                     5      43.7480209893045
290870176      16.9677100245816                     5      46.2080209893045
290870176      16.9677100245816                     5      48.6680209893045
290870176      16.9677100245816                     5      1.12802098930446
290870176      1.97747202458159                     5      35.1380209893045
290870176      1.97747202458159                     5      37.5980209893045
290870176      1.97747202458159                     5      40.0580209893045
290870176      1.97747202458159                     5      42.5180209893045
290870176      1.97747202458159                     5      44.9780209893045
290870176      1.97747202458159                     5      47.4380209893045
290870176      1.97747202458159                     5      49.8980209893045
290870176      2.69117902458159                     5      36.3680209893045
290870176      2.69117902458159                     5      38.8280209893045
290870144      2.69117902458159                     5      41.2880209893045
290870144      2.69117902458159                     5      43.7480209893045
290870144      2.69117902458159                     5      46.2080209893045
290870144      2.69117902458159                     5      48.6680209893045
290870144      2.69117902458159                     5      1.12802098930446
290870144      4.83264102458159                     5      35.1380209893045
290870144      4.83264102458159                     5      37.5980209893045
290870144      4.83264102458159                     5      40.0580209893045
290870144      4.83264102458159                     5      42.5180209893045
290870144      4.83264102458159                     5      44.9780209893045
290870144      4.83264102458159                     5      47.4380209893045
290870144      4.83264102458159                     5      49.8980209893045
290870144      4.11893502458159                     5      36.3680209893045
290870144      4.11893502458159                     5      38.8280209893045
290870144      4.11893502458159                     5      41.2880209893045
290870144      4.11893502458159                     5      43.7480209893045
290870144      4.11893502458159                     5      46.2080209893045
290870144      4.11893502458159                     5      48.6680209893045
290870144      4.11893502458159                     5      1.12802098930446
290870144      6.26039702458159                     5      35.1380209893045
290870144      6.26039702458159                     5      37.5980209893045
290870144      6.26039702458159                     5      40.0580209893045
290870144      6.26039702458159                     5      42.5180209893045
290870144      6.26039702458159                     5      44.9780209893045
290870144      6.26039702458159                     5      47.4380209893045
290870144      6.26039702458159                     5      49.8980209893045
290870144      6.97410402458159                     5      36.3680209893045
290870144      6.97410402458159                     5      38.8280209893045
290870144      6.97410402458159                     5      41.2880209893045
290870144      6.97410402458159                     5      43.7480209893045
290870144      6.97410402458159                     5      46.2080209893045
290870144      6.97410402458159                     5      48.6680209893045
290870144      6.97410402458159                     5      1.12802098930446
290870144      9.11556602458159                     5      35.1380209893045
290870144      9.11556602458159                     5      37.5980209893045
290870144      9.11556602458159                     5      40.0580209893045
290870144      9.11556602458159                     5      42.5180209893045
290870144      9.11556602458159                     5      44.9780209893045
290870144      9.11556602458159                     5      47.4380209893045
290870144      9.11556602458159                     5      49.8980209893045
290870144      8.40186002458159                     5      36.3680209893045
290870144      8.40186002458159                     5      38.8280209893045
290870144      8.40186002458159                     5      41.2880209893045
290870144      8.40186002458159                     5      43.7480209893045
290870144      8.40186002458159                     5      46.2080209893045
290870144      8.40186002458159                     5      48.6680209893045
290870144      8.40186002458159                     5      1.12802098930446
290870144      10.5433220245816                     5      35.1380209893045
290870144      10.5433220245816                     5      37.5980209893045
290870144      10.5433220245816                     5      40.0580209893045
290870144      10.5433220245816                     5      42.5180209893045
290870144      10.5433220245816                     5      44.9780209893045
290870144      10.5433220245816                     5      47.4380209893045
290870144      10.5433220245816                     5      49.8980209893045
290870144      11.2570290245816                     5      36.3680209893045
290870144      11.2570290245816                     5      38.8280209893045
290870144      11.2570290245816                     5      41.2880209893045
290870144      11.2570290245816                     5      43.7480209893045
290870144      11.2570290245816                     5      46.2080209893045
290870144      11.2570290245816                     5      48.6680209893045
290870144      11.2570290245816                     5      1.12802098930446
290870144      13.3984910245816                     5      35.1380209893045
290870144      13.3984910245816                     5      37.5980209893045
290870144      13.3984910245816                     5      40.0580209893045