LAMMPS (30 Aug 2012)
units		metal
boundary	p p p
atom_style	atomic
read_data	struct.lammps
  orthogonal box = (0 0 0) to (17.1317 10 50)
  1 by 1 by 1 MPI processor grid
  300 atoms

pair_style      airebo 3.0
pair_coeff      * * CH.airebo C H

mass	1	12.0
mass	2	1.0

group		fixPosH id <> 1 120
120 atoms in group fixPosH
group		fixPosL id <> 121 239
119 atoms in group fixPosL
group		optPos  id <> 240 1000
61 atoms in group optPos
fix             0       fixPosH setforce NULL 0.0 NULL
fix             1       fixPosH aveforce 0.0 0.0 0.0
fix		2	fixPosL setforce 0.0 0.0 0.0
fix 		3	optPos	setforce NULL 0.0 NULL

neighbor        0.2 bin
neigh_modify	every 1 delay 0 check yes

timestep	0.002
thermo 		1
thermo_style    custom step  pe etotal lx ly lz 

dump		1 all xyz 10000000 dump.atom
dump_modify	1 format "%d  %20.15g  %20.15g  %20.15g" 
#fix 		8 all box/relax iso 0.0 
min_style	cg
minimize	1.0e-12 1.0e-12 10 10
Memory usage per processor = 3.26712 Mbytes
Step PotEng TotEng Lx Ly Lz 
       0   -901.00313   -901.00313      17.1317           10           50 
       1   -990.61422   -990.61422      17.1317           10           50 
       2    -1047.664    -1047.664      17.1317           10           50 
       3   -1084.8883   -1084.8883      17.1317           10           50 
       4   -1108.0614   -1108.0614      17.1317           10           50 
       5   -1125.6644   -1125.6644      17.1317           10           50 
       6   -1138.8514   -1138.8514      17.1317           10           50 
       7   -1152.0833   -1152.0833      17.1317           10           50 
       8     -1159.92     -1159.92      17.1317           10           50 
       9   -1167.8076   -1167.8076      17.1317           10           50 
      10   -1168.3148   -1168.3148      17.1317           10           50 
Loop time of 0.42892 on 1 procs for 10 steps with 300 atoms

Minimization stats:
  Stopping criterion = max force evaluations
  Energy initial, next-to-last, final = 
        -901.003128211     -1167.80756089      -1168.3147674
  Force two-norm initial, final = 623.482 41.976
  Force max component initial, final = 414.208 33.7753
  Final line search alpha, max atom move = 0.000926436 0.0312907
  Iterations, force evaluations = 10 13

Pair  time (%) = 0.194624 (45.3753)
Neigh time (%) = 0.230512 (53.7423)
Comm  time (%) = 0.00160623 (0.374481)
Outpt time (%) = 0.000143051 (0.0333515)
Other time (%) = 0.00203514 (0.47448)

Nlocal:    300 ave 300 max 300 min
Histogram: 1 0 0 0 0 0 0 0 0 0
Nghost:    2450 ave 2450 max 2450 min
Histogram: 1 0 0 0 0 0 0 0 0 0
Neighs:    0 ave 0 max 0 min
Histogram: 1 0 0 0 0 0 0 0 0 0
FullNghs:  44868 ave 44868 max 44868 min
Histogram: 1 0 0 0 0 0 0 0 0 0

Total # of neighbors = 44868
Ave neighs/atom = 149.56
Neighbor list builds = 10
Dangerous builds = 10
min_modify line quadratic

clear
