search structure

300 atoms
2  atom types

0   17.131700 xlo xhi
0   10.000000 ylo yhi
0   50.000000 zlo zhi

Atoms

1 2 15.543123 5.000000 36.368404
2 2 15.543123 5.000000 38.828404
3 2 15.543123 5.000000 41.288404
4 2 15.543123 5.000000 43.748404
5 2 15.543123 5.000000 46.208404
6 2 15.543123 5.000000 48.668404
7 2 15.543123 5.000000 51.128404
8 2 0.552885 5.000000 35.138404
9 2 0.552885 5.000000 37.598404
10 2 0.552885 5.000000 40.058404
11 2 0.552885 5.000000 42.518404
12 2 0.552885 5.000000 44.978404
13 2 0.552885 5.000000 47.438404
14 2 0.552885 5.000000 49.898404
15 2 16.970879 5.000000 36.368404
16 2 16.970879 5.000000 38.828404
17 2 16.970879 5.000000 41.288404
18 2 16.970879 5.000000 43.748404
19 2 16.970879 5.000000 46.208404
20 2 16.970879 5.000000 48.668404
21 2 16.970879 5.000000 51.128404
22 2 1.980641 5.000000 35.138404
23 2 1.980641 5.000000 37.598404
24 2 1.980641 5.000000 40.058404
25 2 1.980641 5.000000 42.518404
26 2 1.980641 5.000000 44.978404
27 2 1.980641 5.000000 47.438404
28 2 1.980641 5.000000 49.898404
29 2 2.694348 5.000000 36.368404
30 2 2.694348 5.000000 38.828404
31 1 2.694348 5.000000 41.288404
32 1 2.694348 5.000000 43.748404
33 1 2.694348 5.000000 46.208404
34 1 2.694348 5.000000 48.668404
35 1 2.694348 5.000000 51.128404
36 1 4.835810 5.000000 35.138404
37 1 4.835810 5.000000 37.598404
38 1 4.835810 5.000000 40.058404
39 1 4.835810 5.000000 42.518404
40 1 4.835810 5.000000 44.978404
41 1 4.835810 5.000000 47.438404
42 1 4.835810 5.000000 49.898404
43 1 4.122104 5.000000 36.368404
44 1 4.122104 5.000000 38.828404
45 1 4.122104 5.000000 41.288404
46 1 4.122104 5.000000 43.748404
47 1 4.122104 5.000000 46.208404
48 1 4.122104 5.000000 48.668404
49 1 4.122104 5.000000 51.128404
50 1 6.263566 5.000000 35.138404
51 1 6.263566 5.000000 37.598404
52 1 6.263566 5.000000 40.058404
53 1 6.263566 5.000000 42.518404
54 1 6.263566 5.000000 44.978404
55 1 6.263566 5.000000 47.438404
56 1 6.263566 5.000000 49.898404
57 1 6.977273 5.000000 36.368404
58 1 6.977273 5.000000 38.828404
59 1 6.977273 5.000000 41.288404
60 1 6.977273 5.000000 43.748404
61 1 6.977273 5.000000 46.208404
62 1 6.977273 5.000000 48.668404
63 1 6.977273 5.000000 51.128404
64 1 9.118735 5.000000 35.138404
65 1 9.118735 5.000000 37.598404
66 1 9.118735 5.000000 40.058404
67 1 9.118735 5.000000 42.518404
68 1 9.118735 5.000000 44.978404
69 1 9.118735 5.000000 47.438404
70 1 9.118735 5.000000 49.898404
71 1 8.405029 5.000000 36.368404
72 1 8.405029 5.000000 38.828404
73 1 8.405029 5.000000 41.288404
74 1 8.405029 5.000000 43.748404
75 1 8.405029 5.000000 46.208404
76 1 8.405029 5.000000 48.668404
77 1 8.405029 5.000000 51.128404
78 1 10.546491 5.000000 35.138404
79 1 10.546491 5.000000 37.598404
80 1 10.546491 5.000000 40.058404
81 1 10.546491 5.000000 42.518404
82 1 10.546491 5.000000 44.978404
83 1 10.546491 5.000000 47.438404
84 1 10.546491 5.000000 49.898404
85 1 11.260198 5.000000 36.368404
86 1 11.260198 5.000000 38.828404
87 1 11.260198 5.000000 41.288404
88 1 11.260198 5.000000 43.748404
89 1 11.260198 5.000000 46.208404
90 1 11.260198 5.000000 48.668404
91 1 11.260198 5.000000 51.128404
92 1 13.401660 5.000000 35.138404
93 1 13.401660 5.000000 37.598404
94 1 13.401660 5.000000 40.058404
95 1 13.401660 5.000000 42.518404
96 1 13.401660 5.000000 44.978404
97 1 13.401660 5.000000 47.438404
98 1 13.401660 5.000000 49.898404
99 1 12.687954 5.000000 36.368404
100 1 12.687954 5.000000 38.828404
101 1 12.687954 5.000000 41.288404
102 1 12.687954 5.000000 43.748404
103 1 12.687954 5.000000 46.208404
104 1 12.687954 5.000000 48.668404
105 1 12.687954 5.000000 51.128404
106 1 14.829416 5.000000 35.138404
107 1 14.829416 5.000000 37.598404
108 1 14.829416 5.000000 40.058404
109 1 14.829416 5.000000 42.518404
110 1 14.829416 5.000000 44.978404
111 1 14.829416 5.000000 47.438404
112 1 14.829416 5.000000 49.898404
113 2 14.972980 5.000000 52.115904
114 2 0.409150 5.000000 52.115904
115 2 2.126432 5.000000 52.116904
116 2 4.692075 5.000000 52.115904
117 2 6.409357 5.000000 52.116904
118 2 8.975000 5.000000 52.115904
119 2 10.692282 5.000000 52.116904
120 2 13.257925 5.000000 52.115904
121 1 -0.039917 5.000000 8.565500
122 1 -0.039917 5.000000 12.826500
123 1 -0.039917 5.000000 17.087500
124 1 -0.039917 5.000000 21.348000
125 1 -0.039917 5.000000 9.986000
126 1 -0.039917 5.000000 14.246500
127 1 -0.039917 5.000000 18.507500
128 1 -0.039917 5.000000 22.768500
129 1 15.868066 5.000000 10.696000
130 1 15.868066 5.000000 14.957000
131 1 15.868066 5.000000 19.217500
132 1 15.868066 5.000000 23.478500
133 1 15.868066 5.000000 7.855500
134 1 15.868066 5.000000 12.116500
135 1 15.868066 5.000000 16.377000
136 1 15.868066 5.000000 20.638000
137 1 14.644348 5.000000 8.565500
138 1 14.644348 5.000000 12.826500
139 1 14.644348 5.000000 17.087500
140 1 14.644348 5.000000 21.348000
141 1 13.420631 5.000000 10.696000
142 1 13.420631 5.000000 14.957000
143 1 13.420631 5.000000 19.217500
144 1 13.420631 5.000000 23.478500
145 1 14.644348 5.000000 9.986000
146 1 14.644348 5.000000 14.246500
147 1 14.644348 5.000000 18.507500
148 1 14.644348 5.000000 22.768500
149 1 13.420631 5.000000 7.855500
150 1 13.420631 5.000000 12.116500
151 1 13.420631 5.000000 16.377000
152 1 13.420631 5.000000 20.638000
153 1 12.197085 5.000000 8.565500
154 1 12.197085 5.000000 12.826500
155 1 12.197085 5.000000 17.087500
156 1 12.197085 5.000000 21.348000
157 1 10.973368 5.000000 10.696000
158 1 10.973368 5.000000 14.957000
159 1 10.973368 5.000000 19.217500
160 1 10.973368 5.000000 23.478500
161 1 12.197085 5.000000 9.986000
162 1 12.197085 5.000000 14.246500
163 1 12.197085 5.000000 18.507500
164 1 12.197085 5.000000 22.768500
165 1 10.973368 5.000000 7.855500
166 1 10.973368 5.000000 12.116500
167 1 10.973368 5.000000 16.377000
168 1 10.973368 5.000000 20.638000
169 1 9.749650 5.000000 8.565500
170 1 9.749650 5.000000 12.826500
171 1 9.749650 5.000000 17.087500
172 1 9.749650 5.000000 21.348000
173 1 8.525933 5.000000 10.696000
174 1 8.525933 5.000000 14.957000
175 1 8.525933 5.000000 19.217500
176 1 8.525933 5.000000 23.478500
177 1 9.749650 5.000000 9.986000
178 1 9.749650 5.000000 14.246500
179 1 9.749650 5.000000 18.507500
180 1 9.749650 5.000000 22.768500
181 1 8.525933 5.000000 7.855500
182 1 8.525933 5.000000 12.116500
183 1 8.525933 5.000000 16.377000
184 1 8.525933 5.000000 20.638000
185 1 7.302216 5.000000 8.565500
186 1 7.302216 5.000000 12.826500
187 1 7.302216 5.000000 17.087500
188 1 7.302216 5.000000 21.348000
189 1 6.078498 5.000000 10.696000
190 1 6.078498 5.000000 14.957000
191 1 6.078498 5.000000 19.217500
192 1 6.078498 5.000000 23.478500
193 1 7.302216 5.000000 9.986000
194 1 7.302216 5.000000 14.246500
195 1 7.302216 5.000000 18.507500
196 1 7.302216 5.000000 22.768500
197 1 6.078498 5.000000 7.855500
198 1 6.078498 5.000000 12.116500
199 1 6.078498 5.000000 16.377000
200 1 6.078498 5.000000 20.638000
201 1 4.854781 5.000000 8.565500
202 1 4.854781 5.000000 12.826500
203 1 4.854781 5.000000 17.087500
204 1 4.854781 5.000000 21.348000
205 1 3.631235 5.000000 10.696000
206 1 3.631235 5.000000 14.957000
207 1 3.631235 5.000000 19.217500
208 1 3.631235 5.000000 23.478500
209 1 4.854781 5.000000 9.986000
210 1 4.854781 5.000000 14.246500
211 1 4.854781 5.000000 18.507500
212 1 4.854781 5.000000 22.768500
213 1 3.631235 5.000000 7.855500
214 1 3.631235 5.000000 12.116500
215 1 3.631235 5.000000 16.377000
216 1 3.631235 5.000000 20.638000
217 1 2.407518 5.000000 8.565500
218 1 2.407518 5.000000 12.826500
219 1 2.407518 5.000000 17.087500
220 1 2.407518 5.000000 21.348000
221 1 1.183800 5.000000 10.696000
222 1 1.183800 5.000000 14.957000
223 1 1.183800 5.000000 19.217500
224 1 1.183800 5.000000 23.478500
225 1 2.407518 5.000000 9.986000
226 1 2.407518 5.000000 14.246500
227 1 2.407518 5.000000 18.507500
228 1 2.407518 5.000000 22.768500
229 1 1.183800 5.000000 7.855500
230 1 1.183800 5.000000 12.116500
231 1 1.183800 5.000000 16.377000
232 1 1.183800 5.000000 20.638000
233 2 15.865667 5.000000 6.715500
234 2 13.423030 5.000000 6.715500
235 2 10.975766 5.000000 6.715500
236 2 8.528332 5.000000 6.715500
237 2 6.080897 5.000000 6.715500
238 2 3.633634 5.000000 6.715500
239 2 1.181402 5.000000 6.715500
240 2 0.288750 1.566478 26.170084
241 2 10.473403 5.187090 24.983344
242 2 3.346085 2.419677 28.311756
243 2 0.073883 1.313778 25.741227
244 2 10.937515 2.757323 27.753245
245 2 14.530337 5.318971 29.606336
246 2 0.235703 5.304881 27.842624
247 2 6.547884 6.363086 23.500000
248 2 14.173475 9.254265 28.006853
249 2 5.994574 4.865920 29.749257
250 2 3.926176 5.663524 29.266349
251 2 4.515102 8.297245 26.121818
252 2 8.265171 4.140572 29.715222
253 2 13.270030 3.113771 31.857208
254 2 3.051583 4.373897 27.549601
255 2 11.416255 5.139277 27.290680
256 2 2.780526 8.198928 31.121201
257 2 8.533980 7.795917 25.391091
258 2 3.070119 1.509462 30.489065
259 2 6.161119 4.360075 32.133698
260 2 4.603975 7.998942 31.203513
261 2 3.821427 4.172700 33.592282
262 2 3.902531 6.969916 31.496299
263 2 7.089268 8.403602 34.655049
264 2 12.430534 6.812517 35.053069
265 2 0.559849 2.711415 31.415961
266 2 9.403693 3.109707 30.716036
267 2 10.278696 6.178631 29.922535
268 1 14.032882 9.295428 27.174218
269 1 8.383196 7.113432 24.490740
270 1 12.962445 0.308996 27.623854
271 1 0.474172 3.436723 23.816190
272 1 3.227778 6.094484 27.904177
273 1 16.534518 1.691075 26.214601
274 1 2.442623 9.770134 27.360492
275 1 13.539683 9.663390 25.851366
276 1 13.258243 5.676102 23.708314
277 1 8.098403 8.394325 25.839668
278 1 16.210186 8.962106 26.269323
279 1 13.142525 4.856777 28.927573
280 1 7.090448 4.963785 29.479088
281 1 2.854463 6.248542 30.317767
282 1 4.897241 5.452592 31.906123
283 1 13.382051 8.325875 32.493163
284 1 8.030123 4.132164 30.130847
285 1 7.227850 5.616988 31.265243
286 1 7.875988 4.395174 31.846322
287 1 5.608945 0.240212 31.250380
288 1 0.460331 2.635200 30.505487
289 1 12.853266 1.112975 26.751735
290 1 4.684292 3.737475 28.937830
291 1 2.457203 4.600555 35.061904
292 1 3.264969 1.814209 34.585396
293 1 6.894893 5.117306 32.632943
294 1 0.270803 8.936322 30.214625
295 1 8.091680 0.474021 34.440414
296 1 0.953879 2.383563 34.219150
297 1 5.286506 5.252972 33.100092
298 1 15.212884 2.999986 30.480374
299 1 3.592145 2.806434 31.347009
300 1 12.311611 6.883756 30.252666
