300
Atoms. Timestep: 0
423830432             15.780177                     5               37.3065
423830432             15.780177                     5               39.7665
423830432             15.780177                     5               42.2265
423830432             15.780177                     5               44.6865
423830432             15.780177                     5               47.1465
423830432             15.780177                     5               49.6065
423830432             15.780177                     5                2.0665
423830432               0.78994                     5               36.0765
423830432               0.78994                     5               38.5365
423830432               0.78994                     5               40.9965
423830432               0.78994                     5               43.4565
423830432               0.78994                     5               45.9165
423830432               0.78994                     5               48.3765
423830432               0.78994                     5     0.836500000000001
423830432              0.076233                     5               37.3065
423830432              0.076233                     5               39.7665
423830432              0.076233                     5               42.2265
423830432              0.076233                     5               44.6865
423830432              0.076233                     5               47.1465
423830432              0.076233                     5               49.6065
423830432              0.076233                     5                2.0665
423830432              2.217696                     5               36.0765
423830432              2.217696                     5               38.5365
423830432              2.217696                     5               40.9965
423830432              2.217696                     5               43.4565
423830432              2.217696                     5               45.9165
423830432              2.217696                     5               48.3765
423830432              2.217696                     5     0.836500000000001
423830432              2.931402                     5               37.3065
423830432              2.931402                     5               39.7665
423830400              2.931402                     5               42.2265
423830400              2.931402                     5               44.6865
423830400              2.931402                     5               47.1465
423830400              2.931402                     5               49.6065
423830400              2.931402                     5                2.0665
423830400              5.072865                     5               36.0765
423830400              5.072865                     5               38.5365
423830400              5.072865                     5               40.9965
423830400              5.072865                     5               43.4565
423830400              5.072865                     5               45.9165
423830400              5.072865                     5               48.3765
423830400              5.072865                     5     0.836500000000001
423830400              4.359158                     5               37.3065
423830400              4.359158                     5               39.7665
423830400              4.359158                     5               42.2265
423830400              4.359158                     5               44.6865
423830400              4.359158                     5               47.1465
423830400              4.359158                     5               49.6065
423830400              4.359158                     5                2.0665
423830400              6.500621                     5               36.0765
423830400              6.500621                     5               38.5365
423830400              6.500621                     5               40.9965
423830400              6.500621                     5               43.4565
423830400              6.500621                     5               45.9165
423830400              6.500621                     5               48.3765
423830400              6.500621                     5     0.836500000000001
423830400              7.214327                     5               37.3065
423830400              7.214327                     5               39.7665
423830400              7.214327                     5               42.2265
423830400              7.214327                     5               44.6865
423830400              7.214327                     5               47.1465
423830400              7.214327                     5               49.6065
423830400              7.214327                     5                2.0665
423830400               9.35579                     5               36.0765
423830400               9.35579                     5               38.5365
423830400               9.35579                     5               40.9965
423830400               9.35579                     5               43.4565
423830400               9.35579                     5               45.9165
423830400               9.35579                     5               48.3765
423830400               9.35579                     5     0.836500000000001
423830400              8.642083                     5               37.3065
423830400              8.642083                     5               39.7665
423830400              8.642083                     5               42.2265
423830400              8.642083                     5               44.6865
423830400              8.642083                     5               47.1465
423830400              8.642083                     5               49.6065
423830400              8.642083                     5                2.0665
423830400             10.783546                     5               36.0765
423830400             10.783546                     5               38.5365
423830400             10.783546                     5               40.9965
423830400             10.783546                     5               43.4565
423830400             10.783546                     5               45.9165
423830400             10.783546                     5               48.3765
423830400             10.783546                     5     0.836500000000001
423830400             11.497252                     5               37.3065
423830400             11.497252                     5               39.7665
423830400             11.497252                     5               42.2265
423830400             11.497252                     5               44.6865
423830400             11.497252                     5               47.1465
423830400             11.497252                     5               49.6065
423830400             11.497252                     5                2.0665
423830400             13.638715                     5               36.0765
423830400             13.638715                     5               38.5365
423830400             13.638715                     5               40.9965
423830400             13.638715                     5               43.4565
423830400             13.638715                     5               45.9165
423830400             13.638715                     5               48.3765
423830400             13.638715                     5     0.836500000000001
423830400             12.925008                     5               37.3065
423830400             12.925008                     5               39.7665
423830400             12.925008                     5               42.2265
423830400             12.925008                     5               44.6865
423830400             12.925008                     5               47.1465
423830400             12.925008                     5               49.6065
423830400             12.925008                     5                2.0665
423830400             15.066471                     5               36.0765
423830400             15.066471                     5               38.5365
423830400             15.066471                     5               40.9965
423830400             15.066471                     5               43.4565
423830400             15.066471                     5               45.9165
423830400             15.066471                     5               48.3765
423830400             15.066471                     5     0.836500000000001
423830432             15.210034                     5                 3.054
423830432              0.646205                     5                 3.054
423830432              2.363486                     5                 3.055
423830432               4.92913                     5                 3.054
423830432              6.646411                     5                 3.055
423830432              9.212055                     5                 3.054
423830432             10.929336                     5                 3.055
423830432              13.49498                     5                 3.054
423830400             17.091783                     5                8.5655
423830400             17.091783                     5               12.8265
423830400             17.091783                     5               17.0875
423830400             17.091783                     5                21.348
423830400             17.091783                     5                 9.986
423830400             17.091783                     5               14.2465
423830400             17.091783                     5               18.5075
423830400             17.091783                     5               22.7685
423830400             15.868066                     5                10.696
423830400             15.868066                     5                14.957
423830400             15.868066                     5               19.2175
423830400             15.868066                     5               23.4785
423830400             15.868066                     5                7.8555
423830400             15.868066                     5               12.1165
423830400             15.868066                     5                16.377
423830400             15.868066                     5                20.638
423830400             14.644348                     5                8.5655
423830400             14.644348                     5               12.8265
423830400             14.644348                     5               17.0875
423830400             14.644348                     5                21.348
423830400             13.420631                     5                10.696
423830400             13.420631                     5                14.957
423830400             13.420631                     5               19.2175
423830400             13.420631                     5               23.4785
423830400             14.644348                     5                 9.986
423830400             14.644348                     5               14.2465
423830400             14.644348                     5               18.5075
423830400             14.644348                     5               22.7685
423830400             13.420631                     5                7.8555
423830400             13.420631                     5               12.1165
423830400             13.420631                     5                16.377
423830400             13.420631                     5                20.638
423830400             12.197085                     5                8.5655
423830400             12.197085                     5               12.8265
423830400             12.197085                     5               17.0875
423830400             12.197085                     5                21.348
423830400             10.973368                     5                10.696
423830400             10.973368                     5                14.957
423830400             10.973368                     5               19.2175
423830400             10.973368                     5               23.4785
423830400             12.197085                     5                 9.986
423830400             12.197085                     5               14.2465
423830400             12.197085                     5               18.5075
423830400             12.197085                     5               22.7685
423830400             10.973368                     5                7.8555
423830400             10.973368                     5               12.1165
423830400             10.973368                     5                16.377
423830400             10.973368                     5                20.638
423830400               9.74965                     5                8.5655
423830400               9.74965                     5               12.8265
423830400               9.74965                     5               17.0875
423830400               9.74965                     5                21.348
423830400              8.525933                     5                10.696
423830400              8.525933                     5                14.957
423830400              8.525933                     5               19.2175
423830400              8.525933                     5               23.4785
423830400               9.74965                     5                 9.986
423830400               9.74965                     5               14.2465
423830400               9.74965                     5               18.5075
423830400               9.74965                     5               22.7685
423830400              8.525933                     5                7.8555
423830400              8.525933                     5               12.1165
423830400              8.525933                     5                16.377
423830400              8.525933                     5                20.638
423830400              7.302216                     5                8.5655
423830400              7.302216                     5               12.8265
423830400              7.302216                     5               17.0875
423830400              7.302216                     5                21.348
423830400              6.078498                     5                10.696
423830400              6.078498                     5                14.957
423830400              6.078498                     5               19.2175
423830400              6.078498                     5               23.4785
423830400              7.302216                     5                 9.986
423830400              7.302216                     5               14.2465
423830400              7.302216                     5               18.5075
423830400              7.302216                     5               22.7685
423830400              6.078498                     5                7.8555
423830400              6.078498                     5               12.1165
423830400              6.078498                     5                16.377
423830400              6.078498                     5                20.638
423830400              4.854781                     5                8.5655
423830400              4.854781                     5               12.8265
423830400              4.854781                     5               17.0875
423830400              4.854781                     5                21.348
423830400              3.631235                     5                10.696
423830400              3.631235                     5                14.957
423830400              3.631235                     5               19.2175
423830400              3.631235                     5               23.4785
423830400              4.854781                     5                 9.986
423830400              4.854781                     5               14.2465
423830400              4.854781                     5               18.5075
423830400              4.854781                     5               22.7685
423830400              3.631235                     5                7.8555
423830400              3.631235                     5               12.1165
423830400              3.631235                     5                16.377
423830400              3.631235                     5                20.638
423830400              2.407518                     5                8.5655
423830400              2.407518                     5               12.8265
423830400              2.407518                     5               17.0875
423830400              2.407518                     5                21.348
423830400                1.1838                     5                10.696
423830400                1.1838                     5                14.957
423830400                1.1838                     5               19.2175
423830400                1.1838                     5               23.4785
423830400              2.407518                     5                 9.986
423830400              2.407518                     5               14.2465
423830400              2.407518                     5               18.5075
423830400              2.407518                     5               22.7685
423830400                1.1838                     5                7.8555
423830400                1.1838                     5               12.1165
423830400                1.1838                     5                16.377
423830400                1.1838                     5                20.638
423830432             15.865667                     5                6.7155
423830432              13.42303                     5                6.7155
423830432             10.975766                     5                6.7155
423830432              8.528332                     5                6.7155
423830432              6.080897                     5                6.7155
423830432              3.633634                     5                6.7155
423830432              1.181402                     5                6.7155
423830432              3.105949              2.307319             25.953085
423830432              8.218448               3.00048             26.654516
423830432              0.472291              8.670431             26.880132
423830432             15.687286              9.801427             25.997751
423830432              8.304801              9.012889             29.616234
423830432              1.591151              1.733888             31.061067
423830432             11.913979              2.941632             25.555646
423830432              0.163243              3.590944             24.181476
423830432              9.865823              5.943572             25.641065
423830432             13.321114              6.175434              28.65041
423830432             15.233948               6.95067             32.928603
423830432               4.57489              1.846987             30.857582
423830432             16.596078              2.379627              29.98997
423830432             14.538977              7.360085             31.741882
423830432             14.677674              8.962151             33.173053
423830432              0.469764              9.497862             34.204225
423830432             13.425146              3.960672             35.066404
423830432             10.438449              1.319345             29.056933
423830432              6.201276              9.738725             34.185909
423830432              0.806983               5.24084             35.007108
423830432              1.485991              8.909903                    36
423830432              6.317421               1.95884                    36
423830432              3.025606              5.986967             35.044873
423830432              5.536722              7.282938             33.564686
423830432               4.45409              9.659057             33.064421
423830432              0.219672              5.371548             32.813024
423830432              9.255581              4.608391             29.394534
423830432             14.215501              2.969233             32.391514
423830400              8.556185              1.870955             24.612712
423830400             10.202826              9.484995             24.429927
423830400              5.837946              3.072151             26.372014
423830400              2.114845              2.723337                  23.5
423830400              3.873329               7.24176             24.907354
423830400              14.48464              1.471355             26.572644
423830400             16.077907              2.308779             25.340476
423830400             12.283625              2.027187                  23.5
423830400              0.501114              7.412464             23.570153
423830400             15.770563              7.165684             25.076044
423830400             15.033821              9.555694                  23.5
423830400              7.437495              6.008073             26.622972
423830400              2.870339              8.632392              27.47345
423830400              6.400562              5.071895             26.727986
423830400              3.066676              7.837797             27.713467
423830400             11.789057               8.97546             26.780212
423830400             13.392504              8.673874             26.975839
423830400             14.375793              8.769989             26.828142
423830400              8.519297              8.879366             33.472048
423830400               9.79834              9.062656             28.314586
423830400              2.408888              9.422446             25.132758
423830400              5.400849              0.115365             26.994298
423830400              7.104627              1.087649             33.385894
423830400              0.246108              3.732898                    36
423830400              7.406661              3.980819                    36
423830400              3.979302              9.486826             26.935696
423830400              0.956302              9.236781             31.666621
423830400             14.797437              2.501492             30.911914
423830400              1.664859              3.076878             35.625406
423830400              9.480247               7.80921             28.717496
423830400              7.034433              5.128445             26.604149
423830400              3.152365              6.873904             31.476424
423830400              2.417116              7.222459             32.655265
300
Atoms. Timestep: 10
423830432      15.7759627503975                     5      37.3107376810884
423830432      15.7759627503975                     5      39.7707376810884
423830432      15.7759627503975                     5      42.2307376810884
423830432      15.7759627503975                     5      44.6907376810884
423830432      15.7759627503975                     5      47.1507376810884
423830432      15.7759627503975                     5      49.6107376810884
423830432      15.7759627503975                     5      2.07073768108836
423830432     0.785725750397528                     5      36.0807376810884
423830432     0.785725750397528                     5      38.5407376810884
423830432     0.785725750397528                     5      41.0007376810884
423830432     0.785725750397528                     5      43.4607376810884
423830432     0.785725750397528                     5      45.9207376810884
423830432     0.785725750397528                     5      48.3807376810884
423830432     0.785725750397528                     5      0.84073768108836
423830432    0.0720187503975278                     5      37.3107376810884
423830432    0.0720187503975278                     5      39.7707376810884
423830432    0.0720187503975278                     5      42.2307376810884
423830432    0.0720187503975278                     5      44.6907376810884
423830432    0.0720187503975278                     5      47.1507376810884
423830432    0.0720187503975278                     5      49.6107376810884
423830432    0.0720187503975278                     5      2.07073768108836
423830432      2.21348175039753                     5      36.0807376810884
423830432      2.21348175039753                     5      38.5407376810884
423830432      2.21348175039753                     5      41.0007376810884
423830432      2.21348175039753                     5      43.4607376810884
423830432      2.21348175039753                     5      45.9207376810884
423830432      2.21348175039753                     5      48.3807376810884
423830432      2.21348175039753                     5      0.84073768108836
423830432      2.92718775039753                     5      37.3107376810884
423830432      2.92718775039753                     5      39.7707376810884
423830400      2.92718775039753                     5      42.2307376810884
423830400      2.92718775039753                     5      44.6907376810884
423830400      2.92718775039753                     5      47.1507376810884
423830400      2.92718775039753                     5      49.6107376810884
423830400      2.92718775039753                     5      2.07073768108836
423830400      5.06865075039753                     5      36.0807376810884
423830400      5.06865075039753                     5      38.5407376810884
423830400      5.06865075039753                     5      41.0007376810884
423830400      5.06865075039753                     5      43.4607376810884
423830400      5.06865075039753                     5      45.9207376810884
423830400      5.06865075039753                     5      48.3807376810884
423830400      5.06865075039753                     5      0.84073768108836
423830400      4.35494375039753                     5      37.3107376810884
423830400      4.35494375039753                     5      39.7707376810884
423830400      4.35494375039753                     5      42.2307376810884
423830400      4.35494375039753                     5      44.6907376810884
423830400      4.35494375039753                     5      47.1507376810884
423830400      4.35494375039753                     5      49.6107376810884
423830400      4.35494375039753                     5      2.07073768108836
423830400      6.49640675039753                     5      36.0807376810884
423830400      6.49640675039753                     5      38.5407376810884
423830400      6.49640675039753                     5      41.0007376810884
423830400      6.49640675039753                     5      43.4607376810884
423830400      6.49640675039753                     5      45.9207376810884
423830400      6.49640675039753                     5      48.3807376810884
423830400      6.49640675039753                     5      0.84073768108836
423830400      7.21011275039753                     5      37.3107376810884
423830400      7.21011275039753                     5      39.7707376810884
423830400      7.21011275039753                     5      42.2307376810884
423830400      7.21011275039753                     5      44.6907376810884
423830400      7.21011275039753                     5      47.1507376810884
423830400      7.21011275039753                     5      49.6107376810884
423830400      7.21011275039753                     5      2.07073768108836
423830400      9.35157575039753                     5      36.0807376810884
423830400      9.35157575039753                     5      38.5407376810884
423830400      9.35157575039753                     5      41.0007376810884
423830400      9.35157575039753                     5      43.4607376810884
423830400      9.35157575039753                     5      45.9207376810884
423830400      9.35157575039753                     5      48.3807376810884
423830400      9.35157575039753                     5      0.84073768108836
423830400      8.63786875039753                     5      37.3107376810884
423830400      8.63786875039753                     5      39.7707376810884
423830400      8.63786875039753                     5      42.2307376810884
423830400      8.63786875039753                     5      44.6907376810884
423830400      8.63786875039753                     5      47.1507376810884
423830400      8.63786875039753                     5      49.6107376810884
423830400      8.63786875039753                     5      2.07073768108836
423830400      10.7793317503975                     5      36.0807376810884
423830400      10.7793317503975                     5      38.5407376810884
423830400      10.7793317503975                     5      41.0007376810884
423830400      10.7793317503975                     5      43.4607376810884
423830400      10.7793317503975                     5      45.9207376810884
423830400      10.7793317503975                     5      48.3807376810884
423830400      10.7793317503975                     5      0.84073768108836
423830400      11.4930377503975                     5      37.3107376810884
423830400      11.4930377503975                     5      39.7707376810884
423830400      11.4930377503975                     5      42.2307376810884
423830400      11.4930377503975                     5      44.6907376810884
423830400      11.4930377503975                     5      47.1507376810884
423830400      11.4930377503975                     5      49.6107376810884
423830400      11.4930377503975                     5      2.07073768108836
423830400      13.6345007503975                     5      36.0807376810884
423830400      13.6345007503975                     5      38.5407376810884
423830400      13.6345007503975                     5      41.0007376810884