search structure

300 atoms
2  atom types

0   17.131700 xlo xhi
0   10.000000 ylo yhi
0   50.000000 zlo zhi

Atoms

1 2 15.780177 5.000000 37.306500
2 2 15.780177 5.000000 39.766500
3 2 15.780177 5.000000 42.226500
4 2 15.780177 5.000000 44.686500
5 2 15.780177 5.000000 47.146500
6 2 15.780177 5.000000 49.606500
7 2 15.780177 5.000000 52.066500
8 2 0.789940 5.000000 36.076500
9 2 0.789940 5.000000 38.536500
10 2 0.789940 5.000000 40.996500
11 2 0.789940 5.000000 43.456500
12 2 0.789940 5.000000 45.916500
13 2 0.789940 5.000000 48.376500
14 2 0.789940 5.000000 50.836500
15 2 0.076233 5.000000 37.306500
16 2 0.076233 5.000000 39.766500
17 2 0.076233 5.000000 42.226500
18 2 0.076233 5.000000 44.686500
19 2 0.076233 5.000000 47.146500
20 2 0.076233 5.000000 49.606500
21 2 0.076233 5.000000 52.066500
22 2 2.217696 5.000000 36.076500
23 2 2.217696 5.000000 38.536500
24 2 2.217696 5.000000 40.996500
25 2 2.217696 5.000000 43.456500
26 2 2.217696 5.000000 45.916500
27 2 2.217696 5.000000 48.376500
28 2 2.217696 5.000000 50.836500
29 2 2.931402 5.000000 37.306500
30 2 2.931402 5.000000 39.766500
31 1 2.931402 5.000000 42.226500
32 1 2.931402 5.000000 44.686500
33 1 2.931402 5.000000 47.146500
34 1 2.931402 5.000000 49.606500
35 1 2.931402 5.000000 52.066500
36 1 5.072865 5.000000 36.076500
37 1 5.072865 5.000000 38.536500
38 1 5.072865 5.000000 40.996500
39 1 5.072865 5.000000 43.456500
40 1 5.072865 5.000000 45.916500
41 1 5.072865 5.000000 48.376500
42 1 5.072865 5.000000 50.836500
43 1 4.359158 5.000000 37.306500
44 1 4.359158 5.000000 39.766500
45 1 4.359158 5.000000 42.226500
46 1 4.359158 5.000000 44.686500
47 1 4.359158 5.000000 47.146500
48 1 4.359158 5.000000 49.606500
49 1 4.359158 5.000000 52.066500
50 1 6.500621 5.000000 36.076500
51 1 6.500621 5.000000 38.536500
52 1 6.500621 5.000000 40.996500
53 1 6.500621 5.000000 43.456500
54 1 6.500621 5.000000 45.916500
55 1 6.500621 5.000000 48.376500
56 1 6.500621 5.000000 50.836500
57 1 7.214327 5.000000 37.306500
58 1 7.214327 5.000000 39.766500
59 1 7.214327 5.000000 42.226500
60 1 7.214327 5.000000 44.686500
61 1 7.214327 5.000000 47.146500
62 1 7.214327 5.000000 49.606500
63 1 7.214327 5.000000 52.066500
64 1 9.355790 5.000000 36.076500
65 1 9.355790 5.000000 38.536500
66 1 9.355790 5.000000 40.996500
67 1 9.355790 5.000000 43.456500
68 1 9.355790 5.000000 45.916500
69 1 9.355790 5.000000 48.376500
70 1 9.355790 5.000000 50.836500
71 1 8.642083 5.000000 37.306500
72 1 8.642083 5.000000 39.766500
73 1 8.642083 5.000000 42.226500
74 1 8.642083 5.000000 44.686500
75 1 8.642083 5.000000 47.146500
76 1 8.642083 5.000000 49.606500
77 1 8.642083 5.000000 52.066500
78 1 10.783546 5.000000 36.076500
79 1 10.783546 5.000000 38.536500
80 1 10.783546 5.000000 40.996500
81 1 10.783546 5.000000 43.456500
82 1 10.783546 5.000000 45.916500
83 1 10.783546 5.000000 48.376500
84 1 10.783546 5.000000 50.836500
85 1 11.497252 5.000000 37.306500
86 1 11.497252 5.000000 39.766500
87 1 11.497252 5.000000 42.226500
88 1 11.497252 5.000000 44.686500
89 1 11.497252 5.000000 47.146500
90 1 11.497252 5.000000 49.606500
91 1 11.497252 5.000000 52.066500
92 1 13.638715 5.000000 36.076500
93 1 13.638715 5.000000 38.536500
94 1 13.638715 5.000000 40.996500
95 1 13.638715 5.000000 43.456500
96 1 13.638715 5.000000 45.916500
97 1 13.638715 5.000000 48.376500
98 1 13.638715 5.000000 50.836500
99 1 12.925008 5.000000 37.306500
100 1 12.925008 5.000000 39.766500
101 1 12.925008 5.000000 42.226500
102 1 12.925008 5.000000 44.686500
103 1 12.925008 5.000000 47.146500
104 1 12.925008 5.000000 49.606500
105 1 12.925008 5.000000 52.066500
106 1 15.066471 5.000000 36.076500
107 1 15.066471 5.000000 38.536500
108 1 15.066471 5.000000 40.996500
109 1 15.066471 5.000000 43.456500
110 1 15.066471 5.000000 45.916500
111 1 15.066471 5.000000 48.376500
112 1 15.066471 5.000000 50.836500
113 2 15.210034 5.000000 53.054000
114 2 0.646205 5.000000 53.054000
115 2 2.363486 5.000000 53.055000
116 2 4.929130 5.000000 53.054000
117 2 6.646411 5.000000 53.055000
118 2 9.212055 5.000000 53.054000
119 2 10.929336 5.000000 53.055000
120 2 13.494980 5.000000 53.054000
121 1 -0.039917 5.000000 8.565500
122 1 -0.039917 5.000000 12.826500
123 1 -0.039917 5.000000 17.087500
124 1 -0.039917 5.000000 21.348000
125 1 -0.039917 5.000000 9.986000
126 1 -0.039917 5.000000 14.246500
127 1 -0.039917 5.000000 18.507500
128 1 -0.039917 5.000000 22.768500
129 1 15.868066 5.000000 10.696000
130 1 15.868066 5.000000 14.957000
131 1 15.868066 5.000000 19.217500
132 1 15.868066 5.000000 23.478500
133 1 15.868066 5.000000 7.855500
134 1 15.868066 5.000000 12.116500
135 1 15.868066 5.000000 16.377000
136 1 15.868066 5.000000 20.638000
137 1 14.644348 5.000000 8.565500
138 1 14.644348 5.000000 12.826500
139 1 14.644348 5.000000 17.087500
140 1 14.644348 5.000000 21.348000
141 1 13.420631 5.000000 10.696000
142 1 13.420631 5.000000 14.957000
143 1 13.420631 5.000000 19.217500
144 1 13.420631 5.000000 23.478500
145 1 14.644348 5.000000 9.986000
146 1 14.644348 5.000000 14.246500
147 1 14.644348 5.000000 18.507500
148 1 14.644348 5.000000 22.768500
149 1 13.420631 5.000000 7.855500
150 1 13.420631 5.000000 12.116500
151 1 13.420631 5.000000 16.377000
152 1 13.420631 5.000000 20.638000
153 1 12.197085 5.000000 8.565500
154 1 12.197085 5.000000 12.826500
155 1 12.197085 5.000000 17.087500
156 1 12.197085 5.000000 21.348000
157 1 10.973368 5.000000 10.696000
158 1 10.973368 5.000000 14.957000
159 1 10.973368 5.000000 19.217500
160 1 10.973368 5.000000 23.478500
161 1 12.197085 5.000000 9.986000
162 1 12.197085 5.000000 14.246500
163 1 12.197085 5.000000 18.507500
164 1 12.197085 5.000000 22.768500
165 1 10.973368 5.000000 7.855500
166 1 10.973368 5.000000 12.116500
167 1 10.973368 5.000000 16.377000
168 1 10.973368 5.000000 20.638000
169 1 9.749650 5.000000 8.565500
170 1 9.749650 5.000000 12.826500
171 1 9.749650 5.000000 17.087500
172 1 9.749650 5.000000 21.348000
173 1 8.525933 5.000000 10.696000
174 1 8.525933 5.000000 14.957000
175 1 8.525933 5.000000 19.217500
176 1 8.525933 5.000000 23.478500
177 1 9.749650 5.000000 9.986000
178 1 9.749650 5.000000 14.246500
179 1 9.749650 5.000000 18.507500
180 1 9.749650 5.000000 22.768500
181 1 8.525933 5.000000 7.855500
182 1 8.525933 5.000000 12.116500
183 1 8.525933 5.000000 16.377000
184 1 8.525933 5.000000 20.638000
185 1 7.302216 5.000000 8.565500
186 1 7.302216 5.000000 12.826500
187 1 7.302216 5.000000 17.087500
188 1 7.302216 5.000000 21.348000
189 1 6.078498 5.000000 10.696000
190 1 6.078498 5.000000 14.957000
191 1 6.078498 5.000000 19.217500
192 1 6.078498 5.000000 23.478500
193 1 7.302216 5.000000 9.986000
194 1 7.302216 5.000000 14.246500
195 1 7.302216 5.000000 18.507500
196 1 7.302216 5.000000 22.768500
197 1 6.078498 5.000000 7.855500
198 1 6.078498 5.000000 12.116500
199 1 6.078498 5.000000 16.377000
200 1 6.078498 5.000000 20.638000
201 1 4.854781 5.000000 8.565500
202 1 4.854781 5.000000 12.826500
203 1 4.854781 5.000000 17.087500
204 1 4.854781 5.000000 21.348000
205 1 3.631235 5.000000 10.696000
206 1 3.631235 5.000000 14.957000
207 1 3.631235 5.000000 19.217500
208 1 3.631235 5.000000 23.478500
209 1 4.854781 5.000000 9.986000
210 1 4.854781 5.000000 14.246500
211 1 4.854781 5.000000 18.507500
212 1 4.854781 5.000000 22.768500
213 1 3.631235 5.000000 7.855500
214 1 3.631235 5.000000 12.116500
215 1 3.631235 5.000000 16.377000
216 1 3.631235 5.000000 20.638000
217 1 2.407518 5.000000 8.565500
218 1 2.407518 5.000000 12.826500
219 1 2.407518 5.000000 17.087500
220 1 2.407518 5.000000 21.348000
221 1 1.183800 5.000000 10.696000
222 1 1.183800 5.000000 14.957000
223 1 1.183800 5.000000 19.217500
224 1 1.183800 5.000000 23.478500
225 1 2.407518 5.000000 9.986000
226 1 2.407518 5.000000 14.246500
227 1 2.407518 5.000000 18.507500
228 1 2.407518 5.000000 22.768500
229 1 1.183800 5.000000 7.855500
230 1 1.183800 5.000000 12.116500
231 1 1.183800 5.000000 16.377000
232 1 1.183800 5.000000 20.638000
233 2 15.865667 5.000000 6.715500
234 2 13.423030 5.000000 6.715500
235 2 10.975766 5.000000 6.715500
236 2 8.528332 5.000000 6.715500
237 2 6.080897 5.000000 6.715500
238 2 3.633634 5.000000 6.715500
239 2 1.181402 5.000000 6.715500
240 2 3.105949 2.307319 25.953085
241 2 8.218448 3.000480 26.654516
242 2 0.472291 8.670431 26.880132
243 2 15.687286 9.801427 25.997751
244 2 8.304801 9.012889 29.616234
245 2 1.591151 1.733888 31.061067
246 2 11.913979 2.941632 25.555646
247 2 0.163243 3.590944 24.181476
248 2 9.865823 5.943572 25.641065
249 2 13.321114 6.175434 28.650410
250 2 15.233948 6.950670 32.928603
251 2 4.574890 1.846987 30.857582
252 2 16.596078 2.379627 29.989970
253 2 14.538977 7.360085 31.741882
254 2 14.677674 8.962151 33.173053
255 2 0.469764 9.497862 34.204225
256 2 13.425146 3.960672 35.066404
257 2 10.438449 1.319345 29.056933
258 2 6.201276 9.738725 34.185909
259 2 0.806983 5.240840 35.007108
260 2 1.485991 8.909903 36.000000
261 2 6.317421 1.958840 36.000000
262 2 3.025606 5.986967 35.044873
263 2 5.536722 7.282938 33.564686
264 2 4.454090 9.659057 33.064421
265 2 0.219672 5.371548 32.813024
266 2 9.255581 4.608391 29.394534
267 2 14.215501 2.969233 32.391514
268 1 8.556185 1.870955 24.612712
269 1 10.202826 9.484995 24.429927
270 1 5.837946 3.072151 26.372014
271 1 2.114845 2.723337 23.500000
272 1 3.873329 7.241760 24.907354
273 1 14.484640 1.471355 26.572644
274 1 16.077907 2.308779 25.340476
275 1 12.283625 2.027187 23.500000
276 1 0.501114 7.412464 23.570153
277 1 15.770563 7.165684 25.076044
278 1 15.033821 9.555694 23.500000
279 1 7.437495 6.008073 26.622972
280 1 2.870339 8.632392 27.473450
281 1 6.400562 5.071895 26.727986
282 1 3.066676 7.837797 27.713467
283 1 11.789057 8.975460 26.780212
284 1 13.392504 8.673874 26.975839
285 1 14.375793 8.769989 26.828142
286 1 8.519297 8.879366 33.472048
287 1 9.798340 9.062656 28.314586
288 1 2.408888 9.422446 25.132758
289 1 5.400849 0.115365 26.994298
290 1 7.104627 1.087649 33.385894
291 1 0.246108 3.732898 36.000000
292 1 7.406661 3.980819 36.000000
293 1 3.979302 9.486826 26.935696
294 1 0.956302 9.236781 31.666621
295 1 14.797437 2.501492 30.911914
296 1 1.664859 3.076878 35.625406
297 1 9.480247 7.809210 28.717496
298 1 7.034433 5.128445 26.604149
299 1 3.152365 6.873904 31.476424
300 1 2.417116 7.222459 32.655265
