300
Atoms. Timestep: 0
374539168              3.250142                     5             35.796192
374539168              3.250142                     5             38.256192
374539168              3.250142                     5             40.716192
374539168              3.250142                     5             43.176192
374539168              3.250142                     5             45.636192
374539168              3.250142                     5             48.096192
374539168              3.250142                     5     0.556192000000003
374539168              5.391605                     5             34.566192
374539168              5.391605                     5             37.026192
374539168              5.391605                     5             39.486192
374539168              5.391605                     5             41.946192
374539168              5.391605                     5             44.406192
374539168              5.391605                     5             46.866192
374539168              5.391605                     5             49.326192
374539168              4.677898                     5             35.796192
374539168              4.677898                     5             38.256192
374539168              4.677898                     5             40.716192
374539168              4.677898                     5             43.176192
374539168              4.677898                     5             45.636192
374539168              4.677898                     5             48.096192
374539168              4.677898                     5     0.556192000000003
374539168              6.819361                     5             34.566192
374539168              6.819361                     5             37.026192
374539168              6.819361                     5             39.486192
374539168              6.819361                     5             41.946192
374539168              6.819361                     5             44.406192
374539168              6.819361                     5             46.866192
374539168              6.819361                     5             49.326192
374539168              7.533067                     5             35.796192
374539168              7.533067                     5             38.256192
374539136              7.533067                     5             40.716192
374539136              7.533067                     5             43.176192
374539136              7.533067                     5             45.636192
374539136              7.533067                     5             48.096192
374539136              7.533067                     5     0.556192000000003
374539136               9.67453                     5             34.566192
374539136               9.67453                     5             37.026192
374539136               9.67453                     5             39.486192
374539136               9.67453                     5             41.946192
374539136               9.67453                     5             44.406192
374539136               9.67453                     5             46.866192
374539136               9.67453                     5             49.326192
374539136              8.960823                     5             35.796192
374539136              8.960823                     5             38.256192
374539136              8.960823                     5             40.716192
374539136              8.960823                     5             43.176192
374539136              8.960823                     5             45.636192
374539136              8.960823                     5             48.096192
374539136              8.960823                     5     0.556192000000003
374539136             11.102286                     5             34.566192
374539136             11.102286                     5             37.026192
374539136             11.102286                     5             39.486192
374539136             11.102286                     5             41.946192
374539136             11.102286                     5             44.406192
374539136             11.102286                     5             46.866192
374539136             11.102286                     5             49.326192
374539136             11.815992                     5             35.796192
374539136             11.815992                     5             38.256192
374539136             11.815992                     5             40.716192
374539136             11.815992                     5             43.176192
374539136             11.815992                     5             45.636192
374539136             11.815992                     5             48.096192
374539136             11.815992                     5     0.556192000000003
374539136             13.957455                     5             34.566192
374539136             13.957455                     5             37.026192
374539136             13.957455                     5             39.486192
374539136             13.957455                     5             41.946192
374539136             13.957455                     5             44.406192
374539136             13.957455                     5             46.866192
374539136             13.957455                     5             49.326192
374539136             13.243748                     5             35.796192
374539136             13.243748                     5             38.256192
374539136             13.243748                     5             40.716192
374539136             13.243748                     5             43.176192
374539136             13.243748                     5             45.636192
374539136             13.243748                     5             48.096192
374539136             13.243748                     5     0.556192000000003
374539136             15.385211                     5             34.566192
374539136             15.385211                     5             37.026192
374539136             15.385211                     5             39.486192
374539136             15.385211                     5             41.946192
374539136             15.385211                     5             44.406192
374539136             15.385211                     5             46.866192
374539136             15.385211                     5             49.326192
374539136             16.098917                     5             35.796192
374539136             16.098917                     5             38.256192
374539136             16.098917                     5             40.716192
374539136             16.098917                     5             43.176192
374539136             16.098917                     5             45.636192
374539136             16.098917                     5             48.096192
374539136             16.098917                     5     0.556192000000003
374539136               1.10868                     5             34.566192
374539136               1.10868                     5             37.026192
374539136               1.10868                     5             39.486192
374539136               1.10868                     5             41.946192
374539136               1.10868                     5             44.406192
374539136               1.10868                     5             46.866192
374539136               1.10868                     5             49.326192
374539136              0.394973                     5             35.796192
374539136              0.394973                     5             38.256192
374539136              0.394973                     5             40.716192
374539136              0.394973                     5             43.176192
374539136              0.394973                     5             45.636192
374539136              0.394973                     5             48.096192
374539136              0.394973                     5     0.556192000000003
374539136              2.536436                     5             34.566192
374539136              2.536436                     5             37.026192
374539136              2.536436                     5             39.486192
374539136              2.536436                     5             41.946192
374539136              2.536436                     5             44.406192
374539136              2.536436                     5             46.866192
374539136              2.536436                     5             49.326192
374539168              2.679999                     5              1.543692
374539168               5.24787                     5              1.543692
374539168              6.965151                     5              1.544692
374539168              9.530795                     5              1.543692
374539168             11.248076                     5              1.544692
374539168              13.81372                     5              1.543692
374539168             15.531001                     5              1.544692
374539168              0.964945                     5              1.543692
374539136             17.091783                     5                8.5655
374539136             17.091783                     5               12.8265
374539136             17.091783                     5               17.0875
374539136             17.091783                     5                21.348
374539136             17.091783                     5                 9.986
374539136             17.091783                     5               14.2465
374539136             17.091783                     5               18.5075
374539136             17.091783                     5               22.7685
374539136             15.868066                     5                10.696
374539136             15.868066                     5                14.957
374539136             15.868066                     5               19.2175
374539136             15.868066                     5               23.4785
374539136             15.868066                     5                7.8555
374539136             15.868066                     5               12.1165
374539136             15.868066                     5                16.377
374539136             15.868066                     5                20.638
374539136             14.644348                     5                8.5655
374539136             14.644348                     5               12.8265
374539136             14.644348                     5               17.0875
374539136             14.644348                     5                21.348
374539136             13.420631                     5                10.696
374539136             13.420631                     5                14.957
374539136             13.420631                     5               19.2175
374539136             13.420631                     5               23.4785
374539136             14.644348                     5                 9.986
374539136             14.644348                     5               14.2465
374539136             14.644348                     5               18.5075
374539136             14.644348                     5               22.7685
374539136             13.420631                     5                7.8555
374539136             13.420631                     5               12.1165
374539136             13.420631                     5                16.377
374539136             13.420631                     5                20.638
374539136             12.197085                     5                8.5655
374539136             12.197085                     5               12.8265
374539136             12.197085                     5               17.0875
374539136             12.197085                     5                21.348
374539136             10.973368                     5                10.696
374539136             10.973368                     5                14.957
374539136             10.973368                     5               19.2175
374539136             10.973368                     5               23.4785
374539136             12.197085                     5                 9.986
374539136             12.197085                     5               14.2465
374539136             12.197085                     5               18.5075
374539136             12.197085                     5               22.7685
374539136             10.973368                     5                7.8555
374539136             10.973368                     5               12.1165
374539136             10.973368                     5                16.377
374539136             10.973368                     5                20.638
374539136               9.74965                     5                8.5655
374539136               9.74965                     5               12.8265
374539136               9.74965                     5               17.0875
374539136               9.74965                     5                21.348
374539136              8.525933                     5                10.696
374539136              8.525933                     5                14.957
374539136              8.525933                     5               19.2175
374539136              8.525933                     5               23.4785
374539136               9.74965                     5                 9.986
374539136               9.74965                     5               14.2465
374539136               9.74965                     5               18.5075
374539136               9.74965                     5               22.7685
374539136              8.525933                     5                7.8555
374539136              8.525933                     5               12.1165
374539136              8.525933                     5                16.377
374539136              8.525933                     5                20.638
374539136              7.302216                     5                8.5655
374539136              7.302216                     5               12.8265
374539136              7.302216                     5               17.0875
374539136              7.302216                     5                21.348
374539136              6.078498                     5                10.696
374539136              6.078498                     5                14.957
374539136              6.078498                     5               19.2175
374539136              6.078498                     5               23.4785
374539136              7.302216                     5                 9.986
374539136              7.302216                     5               14.2465
374539136              7.302216                     5               18.5075
374539136              7.302216                     5               22.7685
374539136              6.078498                     5                7.8555
374539136              6.078498                     5               12.1165
374539136              6.078498                     5                16.377
374539136              6.078498                     5                20.638
374539136              4.854781                     5                8.5655
374539136              4.854781                     5               12.8265
374539136              4.854781                     5               17.0875
374539136              4.854781                     5                21.348
374539136              3.631235                     5                10.696
374539136              3.631235                     5                14.957
374539136              3.631235                     5               19.2175
374539136              3.631235                     5               23.4785
374539136              4.854781                     5                 9.986
374539136              4.854781                     5               14.2465
374539136              4.854781                     5               18.5075
374539136              4.854781                     5               22.7685
374539136              3.631235                     5                7.8555
374539136              3.631235                     5               12.1165
374539136              3.631235                     5                16.377
374539136              3.631235                     5                20.638
374539136              2.407518                     5                8.5655
374539136              2.407518                     5               12.8265
374539136              2.407518                     5               17.0875
374539136              2.407518                     5                21.348
374539136                1.1838                     5                10.696
374539136                1.1838                     5                14.957
374539136                1.1838                     5               19.2175
374539136                1.1838                     5               23.4785
374539136              2.407518                     5                 9.986
374539136              2.407518                     5               14.2465
374539136              2.407518                     5               18.5075
374539136              2.407518                     5               22.7685
374539136                1.1838                     5                7.8555
374539136                1.1838                     5               12.1165
374539136                1.1838                     5                16.377
374539136                1.1838                     5                20.638
374539168             15.865667                     5                6.7155
374539168              13.42303                     5                6.7155
374539168             10.975766                     5                6.7155
374539168              8.528332                     5                6.7155
374539168              6.080897                     5                6.7155
374539168              3.633634                     5                6.7155
374539168              1.181402                     5                6.7155
374539168              4.714545              1.067924             25.085926
374539168              1.367048              0.930436             24.477476
374539168              3.104372              3.836128             25.744948
374539168              2.945666              4.721105              26.71545
374539168             11.141199              0.381641             25.795566
374539168              1.830535              1.126332             26.626104
374539168              4.050534              5.778247             25.013762
374539168             10.189641              6.021494             24.504691
374539168             16.467212              8.806342             24.920448
374539168              0.454502              6.292426             26.567761
374539168              3.326722              7.249524             30.524584
374539168              2.877263              7.084359             27.866974
374539168              0.315254              9.489557             27.026175
374539168             15.266534               1.95338             26.929266
374539168             15.913029              4.355198             32.103359
374539168              2.826228              4.715574             26.044603
374539168              2.271489              7.624226             26.576329
374539168             10.318936              8.271668             29.543706
374539168              9.038028              1.482574              34.01277
374539168             16.390899              0.085064             30.146919
374539168              7.133145              6.389958             33.218156
374539168             12.020869              5.705611             29.569413
374539168              6.252476              5.623927             33.334418
374539168              9.183683              0.385376             34.489692
374539168             15.892517              6.416738             32.323955
374539168              0.355525              3.042714             29.225903
374539168             10.361407              3.957081             27.613705
374539168             14.648958              7.042742             31.968701
374539136              2.414086              0.490294             25.513343
374539136             10.855855              4.427044                  23.5
374539136              9.630161              3.549922              25.79349
374539136               4.33019               5.28456                  23.5
374539136              3.354778              6.265399             25.062689
374539136             14.590903              8.648743                  23.5
374539136             15.268169              9.067207             24.469662
374539136              3.885163              2.410634             25.847351
374539136             12.192263              4.793358              24.98958
374539136             11.864423              7.233853                  23.5
374539136             11.058351              0.129615             24.081195
374539136              3.491281              0.014722             25.022095
374539136              1.819489              2.720747             27.420581
374539136             11.982078              1.729364             28.911403
374539136             12.200061              9.665387             25.730189
374539136              4.883883              8.091993             30.198391
374539136              6.177129              8.435574             30.611838
374539136             14.342909              7.781238             28.574887
374539136              6.991211              7.356274             28.733922
374539136             13.356868              6.249033             26.091868
374539136             15.272277              7.995673             28.260285
374539136             13.921471              8.627602             28.402016
374539136               2.87119              0.970287             32.697612
374539136              14.62816              5.565231             31.413028
374539136             16.096107              6.610073             34.489692
374539136             15.948185               7.10354             31.711157
374539136              7.513092              0.162005             29.960541
374539136              8.992831              1.937794             32.036941
374539136             10.204889              0.895265             33.227312
374539136             13.652128              3.898275             34.110708
374539136              0.357578              6.866497             30.928591
374539136             13.795681              7.803736             33.693297
374539136              0.636839               9.13806             31.417745
300
Atoms. Timestep: 10
374539168      3.25097757300303                     5      35.7971917166253
374539168      3.25097757300303                     5      38.2571917166253
374539168      3.25097757300303                     5      40.7171917166253
374539168      3.25097757300303                     5      43.1771917166253
374539168      3.25097757300303                     5      45.6371917166253
374539168      3.25097757300303                     5      48.0971917166253
374539168      3.25097757300303                     5      0.55719171662527
374539168      5.39244057300303                     5      34.5671917166253
374539168      5.39244057300303                     5      37.0271917166253
374539168      5.39244057300303                     5      39.4871917166253
374539168      5.39244057300303                     5      41.9471917166253
374539168      5.39244057300303                     5      44.4071917166253
374539168      5.39244057300303                     5      46.8671917166253
374539168      5.39244057300303                     5      49.3271917166253
374539168      4.67873357300303                     5      35.7971917166253
374539168      4.67873357300303                     5      38.2571917166253
374539168      4.67873357300303                     5      40.7171917166253
374539168      4.67873357300303                     5      43.1771917166253
374539168      4.67873357300303                     5      45.6371917166253
374539168      4.67873357300303                     5      48.0971917166253
374539168      4.67873357300303                     5      0.55719171662527
374539168      6.82019657300303                     5      34.5671917166253
374539168      6.82019657300303                     5      37.0271917166253
374539168      6.82019657300303                     5      39.4871917166253
374539168      6.82019657300303                     5      41.9471917166253
374539168      6.82019657300303                     5      44.4071917166253
374539168      6.82019657300303                     5      46.8671917166253
374539168      6.82019657300303                     5      49.3271917166253
374539168      7.53390257300303                     5      35.7971917166253
374539168      7.53390257300303                     5      38.2571917166253
374539136      7.53390257300303                     5      40.7171917166253
374539136      7.53390257300303                     5      43.1771917166253
374539136      7.53390257300303                     5      45.6371917166253
374539136      7.53390257300303                     5      48.0971917166253
374539136      7.53390257300303                     5      0.55719171662527
374539136      9.67536557300304                     5      34.5671917166253
374539136      9.67536557300304                     5      37.0271917166253
374539136      9.67536557300304                     5      39.4871917166253
374539136      9.67536557300304                     5      41.9471917166253
374539136      9.67536557300304                     5      44.4071917166253
374539136      9.67536557300304                     5      46.8671917166253
374539136      9.67536557300304                     5      49.3271917166253
374539136      8.96165857300304                     5      35.7971917166253
374539136      8.96165857300304                     5      38.2571917166253
374539136      8.96165857300304                     5      40.7171917166253
374539136      8.96165857300304                     5      43.1771917166253
374539136      8.96165857300304                     5      45.6371917166253
374539136      8.96165857300304                     5      48.0971917166253
374539136      8.96165857300304                     5      0.55719171662527
374539136       11.103121573003                     5      34.5671917166253
374539136       11.103121573003                     5      37.0271917166253
374539136       11.103121573003                     5      39.4871917166253
374539136       11.103121573003                     5      41.9471917166253
374539136       11.103121573003                     5      44.4071917166253
374539136       11.103121573003                     5      46.8671917166253
374539136       11.103121573003                     5      49.3271917166253
374539136       11.816827573003                     5      35.7971917166253
374539136       11.816827573003                     5      38.2571917166253
374539136       11.816827573003                     5      40.7171917166253
374539136       11.816827573003                     5      43.1771917166253
374539136       11.816827573003                     5      45.6371917166253
374539136       11.816827573003                     5      48.0971917166253
374539136       11.816827573003                     5      0.55719171662527
374539136       13.958290573003                     5      34.5671917166253
374539136       13.958290573003                     5      37.0271917166253
374539136       13.958290573003                     5      39.4871917166253
374539136       13.958290573003                     5      41.9471917166253
374539136       13.958290573003                     5      44.4071917166253
374539136       13.958290573003                     5      46.8671917166253
374539136       13.958290573003                     5      49.3271917166253
374539136       13.244583573003                     5      35.7971917166253
374539136       13.244583573003                     5      38.2571917166253
374539136       13.244583573003                     5      40.7171917166253
374539136       13.244583573003                     5      43.1771917166253
374539136       13.244583573003                     5      45.6371917166253
374539136       13.244583573003                     5      48.0971917166253
374539136       13.244583573003                     5      0.55719171662527
374539136       15.386046573003                     5      34.5671917166253
374539136       15.386046573003                     5      37.0271917166253
374539136       15.386046573003                     5      39.4871917166253
374539136       15.386046573003                     5      41.9471917166253
374539136       15.386046573003                     5      44.4071917166253
374539136       15.386046573003                     5      46.8671917166253
374539136       15.386046573003                     5      49.3271917166253
374539136       16.099752573003                     5      35.7971917166253
374539136       16.099752573003                     5      38.2571917166253
374539136       16.099752573003                     5      40.7171917166253
374539136       16.099752573003                     5      43.1771917166253
374539136       16.099752573003                     5      45.6371917166253
374539136       16.099752573003                     5      48.0971917166253
374539136       16.099752573003                     5      0.55719171662527
374539136      1.10951557300304                     5      34.5671917166253
374539136      1.10951557300304                     5      37.0271917166253
374539136      1.10951557300304                     5      39.4871917166253