search structure

300 atoms
2  atom types

0   17.131700 xlo xhi
0   10.000000 ylo yhi
0   50.000000 zlo zhi

Atoms

1 2 3.250142 5.000000 35.796192
2 2 3.250142 5.000000 38.256192
3 2 3.250142 5.000000 40.716192
4 2 3.250142 5.000000 43.176192
5 2 3.250142 5.000000 45.636192
6 2 3.250142 5.000000 48.096192
7 2 3.250142 5.000000 50.556192
8 2 5.391605 5.000000 34.566192
9 2 5.391605 5.000000 37.026192
10 2 5.391605 5.000000 39.486192
11 2 5.391605 5.000000 41.946192
12 2 5.391605 5.000000 44.406192
13 2 5.391605 5.000000 46.866192
14 2 5.391605 5.000000 49.326192
15 2 4.677898 5.000000 35.796192
16 2 4.677898 5.000000 38.256192
17 2 4.677898 5.000000 40.716192
18 2 4.677898 5.000000 43.176192
19 2 4.677898 5.000000 45.636192
20 2 4.677898 5.000000 48.096192
21 2 4.677898 5.000000 50.556192
22 2 6.819361 5.000000 34.566192
23 2 6.819361 5.000000 37.026192
24 2 6.819361 5.000000 39.486192
25 2 6.819361 5.000000 41.946192
26 2 6.819361 5.000000 44.406192
27 2 6.819361 5.000000 46.866192
28 2 6.819361 5.000000 49.326192
29 2 7.533067 5.000000 35.796192
30 2 7.533067 5.000000 38.256192
31 1 7.533067 5.000000 40.716192
32 1 7.533067 5.000000 43.176192
33 1 7.533067 5.000000 45.636192
34 1 7.533067 5.000000 48.096192
35 1 7.533067 5.000000 50.556192
36 1 9.674530 5.000000 34.566192
37 1 9.674530 5.000000 37.026192
38 1 9.674530 5.000000 39.486192
39 1 9.674530 5.000000 41.946192
40 1 9.674530 5.000000 44.406192
41 1 9.674530 5.000000 46.866192
42 1 9.674530 5.000000 49.326192
43 1 8.960823 5.000000 35.796192
44 1 8.960823 5.000000 38.256192
45 1 8.960823 5.000000 40.716192
46 1 8.960823 5.000000 43.176192
47 1 8.960823 5.000000 45.636192
48 1 8.960823 5.000000 48.096192
49 1 8.960823 5.000000 50.556192
50 1 11.102286 5.000000 34.566192
51 1 11.102286 5.000000 37.026192
52 1 11.102286 5.000000 39.486192
53 1 11.102286 5.000000 41.946192
54 1 11.102286 5.000000 44.406192
55 1 11.102286 5.000000 46.866192
56 1 11.102286 5.000000 49.326192
57 1 11.815992 5.000000 35.796192
58 1 11.815992 5.000000 38.256192
59 1 11.815992 5.000000 40.716192
60 1 11.815992 5.000000 43.176192
61 1 11.815992 5.000000 45.636192
62 1 11.815992 5.000000 48.096192
63 1 11.815992 5.000000 50.556192
64 1 13.957455 5.000000 34.566192
65 1 13.957455 5.000000 37.026192
66 1 13.957455 5.000000 39.486192
67 1 13.957455 5.000000 41.946192
68 1 13.957455 5.000000 44.406192
69 1 13.957455 5.000000 46.866192
70 1 13.957455 5.000000 49.326192
71 1 13.243748 5.000000 35.796192
72 1 13.243748 5.000000 38.256192
73 1 13.243748 5.000000 40.716192
74 1 13.243748 5.000000 43.176192
75 1 13.243748 5.000000 45.636192
76 1 13.243748 5.000000 48.096192
77 1 13.243748 5.000000 50.556192
78 1 15.385211 5.000000 34.566192
79 1 15.385211 5.000000 37.026192
80 1 15.385211 5.000000 39.486192
81 1 15.385211 5.000000 41.946192
82 1 15.385211 5.000000 44.406192
83 1 15.385211 5.000000 46.866192
84 1 15.385211 5.000000 49.326192
85 1 16.098917 5.000000 35.796192
86 1 16.098917 5.000000 38.256192
87 1 16.098917 5.000000 40.716192
88 1 16.098917 5.000000 43.176192
89 1 16.098917 5.000000 45.636192
90 1 16.098917 5.000000 48.096192
91 1 16.098917 5.000000 50.556192
92 1 1.108680 5.000000 34.566192
93 1 1.108680 5.000000 37.026192
94 1 1.108680 5.000000 39.486192
95 1 1.108680 5.000000 41.946192
96 1 1.108680 5.000000 44.406192
97 1 1.108680 5.000000 46.866192
98 1 1.108680 5.000000 49.326192
99 1 0.394973 5.000000 35.796192
100 1 0.394973 5.000000 38.256192
101 1 0.394973 5.000000 40.716192
102 1 0.394973 5.000000 43.176192
103 1 0.394973 5.000000 45.636192
104 1 0.394973 5.000000 48.096192
105 1 0.394973 5.000000 50.556192
106 1 2.536436 5.000000 34.566192
107 1 2.536436 5.000000 37.026192
108 1 2.536436 5.000000 39.486192
109 1 2.536436 5.000000 41.946192
110 1 2.536436 5.000000 44.406192
111 1 2.536436 5.000000 46.866192
112 1 2.536436 5.000000 49.326192
113 2 2.679999 5.000000 51.543692
114 2 5.247870 5.000000 51.543692
115 2 6.965151 5.000000 51.544692
116 2 9.530795 5.000000 51.543692
117 2 11.248076 5.000000 51.544692
118 2 13.813720 5.000000 51.543692
119 2 15.531001 5.000000 51.544692
120 2 0.964945 5.000000 51.543692
121 1 -0.039917 5.000000 8.565500
122 1 -0.039917 5.000000 12.826500
123 1 -0.039917 5.000000 17.087500
124 1 -0.039917 5.000000 21.348000
125 1 -0.039917 5.000000 9.986000
126 1 -0.039917 5.000000 14.246500
127 1 -0.039917 5.000000 18.507500
128 1 -0.039917 5.000000 22.768500
129 1 15.868066 5.000000 10.696000
130 1 15.868066 5.000000 14.957000
131 1 15.868066 5.000000 19.217500
132 1 15.868066 5.000000 23.478500
133 1 15.868066 5.000000 7.855500
134 1 15.868066 5.000000 12.116500
135 1 15.868066 5.000000 16.377000
136 1 15.868066 5.000000 20.638000
137 1 14.644348 5.000000 8.565500
138 1 14.644348 5.000000 12.826500
139 1 14.644348 5.000000 17.087500
140 1 14.644348 5.000000 21.348000
141 1 13.420631 5.000000 10.696000
142 1 13.420631 5.000000 14.957000
143 1 13.420631 5.000000 19.217500
144 1 13.420631 5.000000 23.478500
145 1 14.644348 5.000000 9.986000
146 1 14.644348 5.000000 14.246500
147 1 14.644348 5.000000 18.507500
148 1 14.644348 5.000000 22.768500
149 1 13.420631 5.000000 7.855500
150 1 13.420631 5.000000 12.116500
151 1 13.420631 5.000000 16.377000
152 1 13.420631 5.000000 20.638000
153 1 12.197085 5.000000 8.565500
154 1 12.197085 5.000000 12.826500
155 1 12.197085 5.000000 17.087500
156 1 12.197085 5.000000 21.348000
157 1 10.973368 5.000000 10.696000
158 1 10.973368 5.000000 14.957000
159 1 10.973368 5.000000 19.217500
160 1 10.973368 5.000000 23.478500
161 1 12.197085 5.000000 9.986000
162 1 12.197085 5.000000 14.246500
163 1 12.197085 5.000000 18.507500
164 1 12.197085 5.000000 22.768500
165 1 10.973368 5.000000 7.855500
166 1 10.973368 5.000000 12.116500
167 1 10.973368 5.000000 16.377000
168 1 10.973368 5.000000 20.638000
169 1 9.749650 5.000000 8.565500
170 1 9.749650 5.000000 12.826500
171 1 9.749650 5.000000 17.087500
172 1 9.749650 5.000000 21.348000
173 1 8.525933 5.000000 10.696000
174 1 8.525933 5.000000 14.957000
175 1 8.525933 5.000000 19.217500
176 1 8.525933 5.000000 23.478500
177 1 9.749650 5.000000 9.986000
178 1 9.749650 5.000000 14.246500
179 1 9.749650 5.000000 18.507500
180 1 9.749650 5.000000 22.768500
181 1 8.525933 5.000000 7.855500
182 1 8.525933 5.000000 12.116500
183 1 8.525933 5.000000 16.377000
184 1 8.525933 5.000000 20.638000
185 1 7.302216 5.000000 8.565500
186 1 7.302216 5.000000 12.826500
187 1 7.302216 5.000000 17.087500
188 1 7.302216 5.000000 21.348000
189 1 6.078498 5.000000 10.696000
190 1 6.078498 5.000000 14.957000
191 1 6.078498 5.000000 19.217500
192 1 6.078498 5.000000 23.478500
193 1 7.302216 5.000000 9.986000
194 1 7.302216 5.000000 14.246500
195 1 7.302216 5.000000 18.507500
196 1 7.302216 5.000000 22.768500
197 1 6.078498 5.000000 7.855500
198 1 6.078498 5.000000 12.116500
199 1 6.078498 5.000000 16.377000
200 1 6.078498 5.000000 20.638000
201 1 4.854781 5.000000 8.565500
202 1 4.854781 5.000000 12.826500
203 1 4.854781 5.000000 17.087500
204 1 4.854781 5.000000 21.348000
205 1 3.631235 5.000000 10.696000
206 1 3.631235 5.000000 14.957000
207 1 3.631235 5.000000 19.217500
208 1 3.631235 5.000000 23.478500
209 1 4.854781 5.000000 9.986000
210 1 4.854781 5.000000 14.246500
211 1 4.854781 5.000000 18.507500
212 1 4.854781 5.000000 22.768500
213 1 3.631235 5.000000 7.855500
214 1 3.631235 5.000000 12.116500
215 1 3.631235 5.000000 16.377000
216 1 3.631235 5.000000 20.638000
217 1 2.407518 5.000000 8.565500
218 1 2.407518 5.000000 12.826500
219 1 2.407518 5.000000 17.087500
220 1 2.407518 5.000000 21.348000
221 1 1.183800 5.000000 10.696000
222 1 1.183800 5.000000 14.957000
223 1 1.183800 5.000000 19.217500
224 1 1.183800 5.000000 23.478500
225 1 2.407518 5.000000 9.986000
226 1 2.407518 5.000000 14.246500
227 1 2.407518 5.000000 18.507500
228 1 2.407518 5.000000 22.768500
229 1 1.183800 5.000000 7.855500
230 1 1.183800 5.000000 12.116500
231 1 1.183800 5.000000 16.377000
232 1 1.183800 5.000000 20.638000
233 2 15.865667 5.000000 6.715500
234 2 13.423030 5.000000 6.715500
235 2 10.975766 5.000000 6.715500
236 2 8.528332 5.000000 6.715500
237 2 6.080897 5.000000 6.715500
238 2 3.633634 5.000000 6.715500
239 2 1.181402 5.000000 6.715500
240 2 4.714545 1.067924 25.085926
241 2 1.367048 0.930436 24.477476
242 2 3.104372 3.836128 25.744948
243 2 2.945666 4.721105 26.715450
244 2 11.141199 0.381641 25.795566
245 2 1.830535 1.126332 26.626104
246 2 4.050534 5.778247 25.013762
247 2 10.189641 6.021494 24.504691
248 2 16.467212 8.806342 24.920448
249 2 0.454502 6.292426 26.567761
250 2 3.326722 7.249524 30.524584
251 2 2.877263 7.084359 27.866974
252 2 0.315254 9.489557 27.026175
253 2 15.266534 1.953380 26.929266
254 2 15.913029 4.355198 32.103359
255 2 2.826228 4.715574 26.044603
256 2 2.271489 7.624226 26.576329
257 2 10.318936 8.271668 29.543706
258 2 9.038028 1.482574 34.012770
259 2 16.390899 0.085064 30.146919
260 2 7.133145 6.389958 33.218156
261 2 12.020869 5.705611 29.569413
262 2 6.252476 5.623927 33.334418
263 2 9.183683 0.385376 34.489692
264 2 15.892517 6.416738 32.323955
265 2 0.355525 3.042714 29.225903
266 2 10.361407 3.957081 27.613705
267 2 14.648958 7.042742 31.968701
268 1 2.414086 0.490294 25.513343
269 1 10.855855 4.427044 23.500000
270 1 9.630161 3.549922 25.793490
271 1 4.330190 5.284560 23.500000
272 1 3.354778 6.265399 25.062689
273 1 14.590903 8.648743 23.500000
274 1 15.268169 9.067207 24.469662
275 1 3.885163 2.410634 25.847351
276 1 12.192263 4.793358 24.989580
277 1 11.864423 7.233853 23.500000
278 1 11.058351 0.129615 24.081195
279 1 3.491281 0.014722 25.022095
280 1 1.819489 2.720747 27.420581
281 1 11.982078 1.729364 28.911403
282 1 12.200061 9.665387 25.730189
283 1 4.883883 8.091993 30.198391
284 1 6.177129 8.435574 30.611838
285 1 14.342909 7.781238 28.574887
286 1 6.991211 7.356274 28.733922
287 1 13.356868 6.249033 26.091868
288 1 15.272277 7.995673 28.260285
289 1 13.921471 8.627602 28.402016
290 1 2.871190 0.970287 32.697612
291 1 14.628160 5.565231 31.413028
292 1 16.096107 6.610073 34.489692
293 1 15.948185 7.103540 31.711157
294 1 7.513092 0.162005 29.960541
295 1 8.992831 1.937794 32.036941
296 1 10.204889 0.895265 33.227312
297 1 13.652128 3.898275 34.110708
298 1 0.357578 6.866497 30.928591
299 1 13.795681 7.803736 33.693297
300 1 0.636839 9.138060 31.417745
