300
Atoms. Timestep: 0
348529568              4.331347                     5               34.3065
348529568              4.331347                     5               36.7665
348529568              4.331347                     5               39.2265
348529568              4.331347                     5               41.6865
348529568              4.331347                     5               44.1465
348529568              4.331347                     5               46.6065
348529568              4.331347                     5               49.0665
348529568              6.472809                     5               33.0765
348529568              6.472809                     5               35.5365
348529568              6.472809                     5               37.9965
348529568              6.472809                     5               40.4565
348529568              6.472809                     5               42.9165
348529568              6.472809                     5               45.3765
348529568              6.472809                     5               47.8365
348529568              5.759103                     5               34.3065
348529568              5.759103                     5               36.7665
348529568              5.759103                     5               39.2265
348529568              5.759103                     5               41.6865
348529568              5.759103                     5               44.1465
348529568              5.759103                     5               46.6065
348529568              5.759103                     5               49.0665
348529568              7.900565                     5               33.0765
348529568              7.900565                     5               35.5365
348529568              7.900565                     5               37.9965
348529568              7.900565                     5               40.4565
348529568              7.900565                     5               42.9165
348529568              7.900565                     5               45.3765
348529568              7.900565                     5               47.8365
348529568              8.614272                     5               34.3065
348529568              8.614272                     5               36.7665
348529536              8.614272                     5               39.2265
348529536              8.614272                     5               41.6865
348529536              8.614272                     5               44.1465
348529536              8.614272                     5               46.6065
348529536              8.614272                     5               49.0665
348529536             10.755734                     5               33.0765
348529536             10.755734                     5               35.5365
348529536             10.755734                     5               37.9965
348529536             10.755734                     5               40.4565
348529536             10.755734                     5               42.9165
348529536             10.755734                     5               45.3765
348529536             10.755734                     5               47.8365
348529536             10.042028                     5               34.3065
348529536             10.042028                     5               36.7665
348529536             10.042028                     5               39.2265
348529536             10.042028                     5               41.6865
348529536             10.042028                     5               44.1465
348529536             10.042028                     5               46.6065
348529536             10.042028                     5               49.0665
348529536              12.18349                     5               33.0765
348529536              12.18349                     5               35.5365
348529536              12.18349                     5               37.9965
348529536              12.18349                     5               40.4565
348529536              12.18349                     5               42.9165
348529536              12.18349                     5               45.3765
348529536              12.18349                     5               47.8365
348529536             12.897197                     5               34.3065
348529536             12.897197                     5               36.7665
348529536             12.897197                     5               39.2265
348529536             12.897197                     5               41.6865
348529536             12.897197                     5               44.1465
348529536             12.897197                     5               46.6065
348529536             12.897197                     5               49.0665
348529536             15.038659                     5               33.0765
348529536             15.038659                     5               35.5365
348529536             15.038659                     5               37.9965
348529536             15.038659                     5               40.4565
348529536             15.038659                     5               42.9165
348529536             15.038659                     5               45.3765
348529536             15.038659                     5               47.8365
348529536             14.324953                     5               34.3065
348529536             14.324953                     5               36.7665
348529536             14.324953                     5               39.2265
348529536             14.324953                     5               41.6865
348529536             14.324953                     5               44.1465
348529536             14.324953                     5               46.6065
348529536             14.324953                     5               49.0665
348529536             16.466415                     5               33.0765
348529536             16.466415                     5               35.5365
348529536             16.466415                     5               37.9965
348529536             16.466415                     5               40.4565
348529536             16.466415                     5               42.9165
348529536             16.466415                     5               45.3765
348529536             16.466415                     5               47.8365
348529536              0.048422                     5               34.3065
348529536              0.048422                     5               36.7665
348529536              0.048422                     5               39.2265
348529536              0.048422                     5               41.6865
348529536              0.048422                     5               44.1465
348529536              0.048422                     5               46.6065
348529536              0.048422                     5               49.0665
348529536              2.189884                     5               33.0765
348529536              2.189884                     5               35.5365
348529536              2.189884                     5               37.9965
348529536              2.189884                     5               40.4565
348529536              2.189884                     5               42.9165
348529536              2.189884                     5               45.3765
348529536              2.189884                     5               47.8365
348529536              1.476178                     5               34.3065
348529536              1.476178                     5               36.7665
348529536              1.476178                     5               39.2265
348529536              1.476178                     5               41.6865
348529536              1.476178                     5               44.1465
348529536              1.476178                     5               46.6065
348529536              1.476178                     5               49.0665
348529536               3.61764                     5               33.0765
348529536               3.61764                     5               35.5365
348529536               3.61764                     5               37.9965
348529536               3.61764                     5               40.4565
348529536               3.61764                     5               42.9165
348529536               3.61764                     5               45.3765
348529536               3.61764                     5               47.8365
348529568              3.761204                     5     0.054000000000002
348529568              6.329075                     5     0.054000000000002
348529568              8.046356                     5    0.0549999999999997
348529568                10.612                     5     0.054000000000002
348529568             12.329281                     5    0.0549999999999997
348529568             14.894925                     5     0.054000000000002
348529568             16.612206                     5    0.0549999999999997
348529568               2.04615                     5     0.054000000000002
348529536             17.091783                     5                8.5655
348529536             17.091783                     5               12.8265
348529536             17.091783                     5               17.0875
348529536             17.091783                     5                21.348
348529536             17.091783                     5                 9.986
348529536             17.091783                     5               14.2465
348529536             17.091783                     5               18.5075
348529536             17.091783                     5               22.7685
348529536             15.868066                     5                10.696
348529536             15.868066                     5                14.957
348529536             15.868066                     5               19.2175
348529536             15.868066                     5               23.4785
348529536             15.868066                     5                7.8555
348529536             15.868066                     5               12.1165
348529536             15.868066                     5                16.377
348529536             15.868066                     5                20.638
348529536             14.644348                     5                8.5655
348529536             14.644348                     5               12.8265
348529536             14.644348                     5               17.0875
348529536             14.644348                     5                21.348
348529536             13.420631                     5                10.696
348529536             13.420631                     5                14.957
348529536             13.420631                     5               19.2175
348529536             13.420631                     5               23.4785
348529536             14.644348                     5                 9.986
348529536             14.644348                     5               14.2465
348529536             14.644348                     5               18.5075
348529536             14.644348                     5               22.7685
348529536             13.420631                     5                7.8555
348529536             13.420631                     5               12.1165
348529536             13.420631                     5                16.377
348529536             13.420631                     5                20.638
348529536             12.197085                     5                8.5655
348529536             12.197085                     5               12.8265
348529536             12.197085                     5               17.0875
348529536             12.197085                     5                21.348
348529536             10.973368                     5                10.696
348529536             10.973368                     5                14.957
348529536             10.973368                     5               19.2175
348529536             10.973368                     5               23.4785
348529536             12.197085                     5                 9.986
348529536             12.197085                     5               14.2465
348529536             12.197085                     5               18.5075
348529536             12.197085                     5               22.7685
348529536             10.973368                     5                7.8555
348529536             10.973368                     5               12.1165
348529536             10.973368                     5                16.377
348529536             10.973368                     5                20.638
348529536               9.74965                     5                8.5655
348529536               9.74965                     5               12.8265
348529536               9.74965                     5               17.0875
348529536               9.74965                     5                21.348
348529536              8.525933                     5                10.696
348529536              8.525933                     5                14.957
348529536              8.525933                     5               19.2175
348529536              8.525933                     5               23.4785
348529536               9.74965                     5                 9.986
348529536               9.74965                     5               14.2465
348529536               9.74965                     5               18.5075
348529536               9.74965                     5               22.7685
348529536              8.525933                     5                7.8555
348529536              8.525933                     5               12.1165
348529536              8.525933                     5                16.377
348529536              8.525933                     5                20.638
348529536              7.302216                     5                8.5655
348529536              7.302216                     5               12.8265
348529536              7.302216                     5               17.0875
348529536              7.302216                     5                21.348
348529536              6.078498                     5                10.696
348529536              6.078498                     5                14.957
348529536              6.078498                     5               19.2175
348529536              6.078498                     5               23.4785
348529536              7.302216                     5                 9.986
348529536              7.302216                     5               14.2465
348529536              7.302216                     5               18.5075
348529536              7.302216                     5               22.7685
348529536              6.078498                     5                7.8555
348529536              6.078498                     5               12.1165
348529536              6.078498                     5                16.377
348529536              6.078498                     5                20.638
348529536              4.854781                     5                8.5655
348529536              4.854781                     5               12.8265
348529536              4.854781                     5               17.0875
348529536              4.854781                     5                21.348
348529536              3.631235                     5                10.696
348529536              3.631235                     5                14.957
348529536              3.631235                     5               19.2175
348529536              3.631235                     5               23.4785
348529536              4.854781                     5                 9.986
348529536              4.854781                     5               14.2465
348529536              4.854781                     5               18.5075
348529536              4.854781                     5               22.7685
348529536              3.631235                     5                7.8555
348529536              3.631235                     5               12.1165
348529536              3.631235                     5                16.377
348529536              3.631235                     5                20.638
348529536              2.407518                     5                8.5655
348529536              2.407518                     5               12.8265
348529536              2.407518                     5               17.0875
348529536              2.407518                     5                21.348
348529536                1.1838                     5                10.696
348529536                1.1838                     5                14.957
348529536                1.1838                     5               19.2175
348529536                1.1838                     5               23.4785
348529536              2.407518                     5                 9.986
348529536              2.407518                     5               14.2465
348529536              2.407518                     5               18.5075
348529536              2.407518                     5               22.7685
348529536                1.1838                     5                7.8555
348529536                1.1838                     5               12.1165
348529536                1.1838                     5                16.377
348529536                1.1838                     5                20.638
348529568             15.865667                     5                6.7155
348529568              13.42303                     5                6.7155
348529568             10.975766                     5                6.7155
348529568              8.528332                     5                6.7155
348529568              6.080897                     5                6.7155
348529568              3.633634                     5                6.7155
348529568              1.181402                     5                6.7155
348529568              6.508967              1.862336             23.951142
348529568              0.668521              0.097741                  23.5
348529568              1.924534              5.654786             25.741208
348529568             16.953132              5.409717             24.413286
348529568              1.917768              3.344866                  23.5
348529568              7.934278              2.353417             27.467331
348529568             15.548738               7.01205             24.090203
348529568              8.278281                2.5202             25.583531
348529568               5.63917              0.356401             24.865752
348529568              4.099839              8.690158             27.782197
348529568             16.955347              8.598739             25.048012
348529568             10.476886              1.661172                  23.5
348529568             12.474275              8.268006              26.54819
348529568             13.998224              2.415676             24.305938
348529568               0.37019              8.680687             24.686008
348529568              7.624537              6.925869             26.024293
348529568             11.258365              8.571133             25.148009
348529568              0.085781               1.08154             24.201211
348529568              0.210063              8.426368             29.386181
348529568             15.268997              4.561872             31.909767
348529568             16.188639              6.081312             25.026854
348529568              1.150165              0.950149                    33
348529568              0.989688              3.063847             29.705461
348529568              2.368899              1.967262              31.15213
348529568              6.041584              2.887664             31.424065
348529568              9.262078              3.586253              27.17814
348529568              7.318738              3.703063             25.090857
348529568             15.846735              6.627336                  23.5
348529536             10.279981               5.82132              23.91472
348529536              9.288081              7.178021             25.669578
348529536              9.297477              7.497155             26.872997
348529536              6.323283              7.560667             26.897647
348529536              3.213315              8.880348             24.743015
348529536              1.865758              3.134128             25.088074
348529536              3.288309              4.515856             25.466521
348529536              9.434802              4.183069             23.829256
348529536              9.405507              7.891386             24.787663
348529536              14.12306              0.484209             24.116309
348529536              1.172502              0.581101             26.944476
348529536              0.054916               3.06605             25.090567
348529536               4.75051              2.836225             24.185512
348529536             10.439634              3.874674             26.218035
348529536              9.897141              6.423223             31.680176
348529536             11.840025              0.672394             24.951565
348529536             11.976841              4.375289                    33
348529536             13.755511              4.567779             30.165113
348529536             11.482443              1.054097             24.520432
348529536              2.083708              1.910774             26.004596
348529536              4.709961              2.386532             25.256225
348529536             12.308273              2.504366             32.734703
348529536             10.698909              4.655673             32.999727
348529536             15.599899              1.743096             32.312634
348529536             13.083711              9.568507             32.502433
348529536              9.687024              3.142272             32.993416
348529536              2.575701              0.141975             27.174482
348529536               7.68829              1.937794                    33
348529536             15.008983              0.683668                    33
348529536              1.537618              0.162726              30.11187
348529536              4.218372              2.162412             31.029406
348529536              16.88197                8.4293             32.331886
348529536              0.441924              9.812057             31.460901
300
Atoms. Timestep: 10
348529568      4.34050618697241                     5      34.3177083232561
348529568      4.34050618697241                     5      36.7777083232561
348529568      4.34050618697241                     5      39.2377083232562
348529568      4.34050618697241                     5      41.6977083232562
348529568      4.34050618697241                     5      44.1577083232562
348529568      4.34050618697241                     5      46.6177083232561
348529568      4.34050618697241                     5      49.0777083232561
348529568      6.48196818697241                     5      33.0877083232562
348529568      6.48196818697241                     5      35.5477083232561
348529568      6.48196818697241                     5      38.0077083232561
348529568      6.48196818697241                     5      40.4677083232561
348529568      6.48196818697241                     5      42.9277083232561
348529568      6.48196818697241                     5      45.3877083232561
348529568      6.48196818697241                     5      47.8477083232561
348529568      5.76826218697241                     5      34.3177083232561
348529568      5.76826218697241                     5      36.7777083232561
348529568      5.76826218697241                     5      39.2377083232562
348529568      5.76826218697241                     5      41.6977083232562
348529568      5.76826218697241                     5      44.1577083232562
348529568      5.76826218697241                     5      46.6177083232561
348529568      5.76826218697241                     5      49.0777083232561
348529568      7.90972418697241                     5      33.0877083232562
348529568      7.90972418697241                     5      35.5477083232561
348529568      7.90972418697241                     5      38.0077083232561
348529568      7.90972418697241                     5      40.4677083232561
348529568      7.90972418697241                     5      42.9277083232561
348529568      7.90972418697241                     5      45.3877083232561
348529568      7.90972418697241                     5      47.8477083232561
348529568      8.62343118697241                     5      34.3177083232561
348529568      8.62343118697241                     5      36.7777083232561
348529536      8.62343118697241                     5      39.2377083232562
348529536      8.62343118697241                     5      41.6977083232562
348529536      8.62343118697241                     5      44.1577083232562
348529536      8.62343118697241                     5      46.6177083232561
348529536      8.62343118697241                     5      49.0777083232561
348529536      10.7648931869724                     5      33.0877083232562
348529536      10.7648931869724                     5      35.5477083232561
348529536      10.7648931869724                     5      38.0077083232561
348529536      10.7648931869724                     5      40.4677083232561
348529536      10.7648931869724                     5      42.9277083232561
348529536      10.7648931869724                     5      45.3877083232561
348529536      10.7648931869724                     5      47.8477083232561
348529536      10.0511871869724                     5      34.3177083232561
348529536      10.0511871869724                     5      36.7777083232561
348529536      10.0511871869724                     5      39.2377083232562
348529536      10.0511871869724                     5      41.6977083232562
348529536      10.0511871869724                     5      44.1577083232562
348529536      10.0511871869724                     5      46.6177083232561
348529536      10.0511871869724                     5      49.0777083232561
348529536      12.1926491869724                     5      33.0877083232562
348529536      12.1926491869724                     5      35.5477083232561
348529536      12.1926491869724                     5      38.0077083232561
348529536      12.1926491869724                     5      40.4677083232561
348529536      12.1926491869724                     5      42.9277083232561
348529536      12.1926491869724                     5      45.3877083232561
348529536      12.1926491869724                     5      47.8477083232561
348529536      12.9063561869724                     5      34.3177083232561
348529536      12.9063561869724                     5      36.7777083232561
348529536      12.9063561869724                     5      39.2377083232562
348529536      12.9063561869724                     5      41.6977083232562
348529536      12.9063561869724                     5      44.1577083232562
348529536      12.9063561869724                     5      46.6177083232561
348529536      12.9063561869724                     5      49.0777083232561
348529536      15.0478181869724                     5      33.0877083232562
348529536      15.0478181869724                     5      35.5477083232561
348529536      15.0478181869724                     5      38.0077083232561
348529536      15.0478181869724                     5      40.4677083232561
348529536      15.0478181869724                     5      42.9277083232561
348529536      15.0478181869724                     5      45.3877083232561
348529536      15.0478181869724                     5      47.8477083232561
348529536      14.3341121869724                     5      34.3177083232561
348529536      14.3341121869724                     5      36.7777083232561
348529536      14.3341121869724                     5      39.2377083232562
348529536      14.3341121869724                     5      41.6977083232562
348529536      14.3341121869724                     5      44.1577083232562
348529536      14.3341121869724                     5      46.6177083232561
348529536      14.3341121869724                     5      49.0777083232561
348529536      16.4755741869724                     5      33.0877083232562
348529536      16.4755741869724                     5      35.5477083232561
348529536      16.4755741869724                     5      38.0077083232561
348529536      16.4755741869724                     5      40.4677083232561
348529536      16.4755741869724                     5      42.9277083232561
348529536      16.4755741869724                     5      45.3877083232561
348529536      16.4755741869724                     5      47.8477083232561
348529536    0.0575811869724127                     5      34.3177083232561
348529536    0.0575811869724127                     5      36.7777083232561
348529536    0.0575811869724127                     5      39.2377083232562
348529536    0.0575811869724127                     5      41.6977083232562
348529536    0.0575811869724127                     5      44.1577083232562
348529536    0.0575811869724127                     5      46.6177083232561
348529536    0.0575811869724127                     5      49.0777083232561
348529536      2.19904318697241                     5      33.0877083232562
348529536      2.19904318697241                     5      35.5477083232561
348529536      2.19904318697241                     5      38.0077083232561