LAMMPS (30 Aug 2012)
units		metal
boundary	p p p
atom_style	atomic
read_data	struct.lammps
  orthogonal box = (0 0 0) to (17.1317 10 50)
  1 by 1 by 1 MPI processor grid
  300 atoms

pair_style      airebo 3.0
pair_coeff      * * CH.airebo C H

mass	1	12.0
mass	2	1.0

group		fixPosH id <> 1 120
120 atoms in group fixPosH
group		fixPosL id <> 121 239
119 atoms in group fixPosL
group		optPos  id <> 240 1000
61 atoms in group optPos
fix             0       fixPosH setforce NULL 0.0 NULL
fix             1       fixPosH aveforce 0.0 0.0 0.0
fix		2	fixPosL setforce 0.0 0.0 0.0
fix 		3	optPos	setforce NULL 0.0 NULL

neighbor        0.2 bin
neigh_modify	every 1 delay 0 check yes

timestep	0.002
thermo 		1
thermo_style    custom step  pe etotal lx ly lz 

dump		1 all xyz 10000000 dump.atom
dump_modify	1 format "%d  %20.15g  %20.15g  %20.15g" 
#fix 		8 all box/relax iso 0.0 
min_style	cg
minimize	1.0e-12 1.0e-12 10 10
Memory usage per processor = 3.26712 Mbytes
Step PotEng TotEng Lx Ly Lz 
       0    1662.5044    1662.5044      17.1317           10           50 
       1    1011.6782    1011.6782      17.1317           10           50 
       2    344.49354    344.49354      17.1317           10           50 
       3   -141.16712   -141.16712      17.1317           10           50 
       4   -552.77783   -552.77783      17.1317           10           50 
       5   -727.16312   -727.16312      17.1317           10           50 
       6    -891.0161    -891.0161      17.1317           10           50 
       7   -969.08297   -969.08297      17.1317           10           50 
       8   -1030.1973   -1030.1973      17.1317           10           50 
       9   -1068.2914   -1068.2914      17.1317           10           50 
      10   -1094.6976   -1094.6976      17.1317           10           50 
Loop time of 0.373926 on 1 procs for 10 steps with 300 atoms

Minimization stats:
  Stopping criterion = max force evaluations
  Energy initial, next-to-last, final = 
         1662.50440673     -1068.29142111      -1094.6976132
  Force two-norm initial, final = 3855.97 146.074
  Force max component initial, final = 3086.25 110.109
  Final line search alpha, max atom move = 0.000824457 0.0907801
  Iterations, force evaluations = 10 10

Pair  time (%) = 0.155112 (41.482)
Neigh time (%) = 0.215331 (57.5866)
Comm  time (%) = 0.00144076 (0.385307)
Outpt time (%) = 0.000139236 (0.0372364)
Other time (%) = 0.00190282 (0.508876)

Nlocal:    300 ave 300 max 300 min
Histogram: 1 0 0 0 0 0 0 0 0 0
Nghost:    2350 ave 2350 max 2350 min
Histogram: 1 0 0 0 0 0 0 0 0 0
Neighs:    0 ave 0 max 0 min
Histogram: 1 0 0 0 0 0 0 0 0 0
FullNghs:  46728 ave 46728 max 46728 min
Histogram: 1 0 0 0 0 0 0 0 0 0

Total # of neighbors = 46728
Ave neighs/atom = 155.76
Neighbor list builds = 10
Dangerous builds = 10
min_modify line quadratic

clear
