search structure

300 atoms
2  atom types

0   17.131700 xlo xhi
0   10.000000 ylo yhi
0   50.000000 zlo zhi

Atoms

1 2 4.331347 5.000000 34.306500
2 2 4.331347 5.000000 36.766500
3 2 4.331347 5.000000 39.226500
4 2 4.331347 5.000000 41.686500
5 2 4.331347 5.000000 44.146500
6 2 4.331347 5.000000 46.606500
7 2 4.331347 5.000000 49.066500
8 2 6.472809 5.000000 33.076500
9 2 6.472809 5.000000 35.536500
10 2 6.472809 5.000000 37.996500
11 2 6.472809 5.000000 40.456500
12 2 6.472809 5.000000 42.916500
13 2 6.472809 5.000000 45.376500
14 2 6.472809 5.000000 47.836500
15 2 5.759103 5.000000 34.306500
16 2 5.759103 5.000000 36.766500
17 2 5.759103 5.000000 39.226500
18 2 5.759103 5.000000 41.686500
19 2 5.759103 5.000000 44.146500
20 2 5.759103 5.000000 46.606500
21 2 5.759103 5.000000 49.066500
22 2 7.900565 5.000000 33.076500
23 2 7.900565 5.000000 35.536500
24 2 7.900565 5.000000 37.996500
25 2 7.900565 5.000000 40.456500
26 2 7.900565 5.000000 42.916500
27 2 7.900565 5.000000 45.376500
28 2 7.900565 5.000000 47.836500
29 2 8.614272 5.000000 34.306500
30 2 8.614272 5.000000 36.766500
31 1 8.614272 5.000000 39.226500
32 1 8.614272 5.000000 41.686500
33 1 8.614272 5.000000 44.146500
34 1 8.614272 5.000000 46.606500
35 1 8.614272 5.000000 49.066500
36 1 10.755734 5.000000 33.076500
37 1 10.755734 5.000000 35.536500
38 1 10.755734 5.000000 37.996500
39 1 10.755734 5.000000 40.456500
40 1 10.755734 5.000000 42.916500
41 1 10.755734 5.000000 45.376500
42 1 10.755734 5.000000 47.836500
43 1 10.042028 5.000000 34.306500
44 1 10.042028 5.000000 36.766500
45 1 10.042028 5.000000 39.226500
46 1 10.042028 5.000000 41.686500
47 1 10.042028 5.000000 44.146500
48 1 10.042028 5.000000 46.606500
49 1 10.042028 5.000000 49.066500
50 1 12.183490 5.000000 33.076500
51 1 12.183490 5.000000 35.536500
52 1 12.183490 5.000000 37.996500
53 1 12.183490 5.000000 40.456500
54 1 12.183490 5.000000 42.916500
55 1 12.183490 5.000000 45.376500
56 1 12.183490 5.000000 47.836500
57 1 12.897197 5.000000 34.306500
58 1 12.897197 5.000000 36.766500
59 1 12.897197 5.000000 39.226500
60 1 12.897197 5.000000 41.686500
61 1 12.897197 5.000000 44.146500
62 1 12.897197 5.000000 46.606500
63 1 12.897197 5.000000 49.066500
64 1 15.038659 5.000000 33.076500
65 1 15.038659 5.000000 35.536500
66 1 15.038659 5.000000 37.996500
67 1 15.038659 5.000000 40.456500
68 1 15.038659 5.000000 42.916500
69 1 15.038659 5.000000 45.376500
70 1 15.038659 5.000000 47.836500
71 1 14.324953 5.000000 34.306500
72 1 14.324953 5.000000 36.766500
73 1 14.324953 5.000000 39.226500
74 1 14.324953 5.000000 41.686500
75 1 14.324953 5.000000 44.146500
76 1 14.324953 5.000000 46.606500
77 1 14.324953 5.000000 49.066500
78 1 16.466415 5.000000 33.076500
79 1 16.466415 5.000000 35.536500
80 1 16.466415 5.000000 37.996500
81 1 16.466415 5.000000 40.456500
82 1 16.466415 5.000000 42.916500
83 1 16.466415 5.000000 45.376500
84 1 16.466415 5.000000 47.836500
85 1 0.048422 5.000000 34.306500
86 1 0.048422 5.000000 36.766500
87 1 0.048422 5.000000 39.226500
88 1 0.048422 5.000000 41.686500
89 1 0.048422 5.000000 44.146500
90 1 0.048422 5.000000 46.606500
91 1 0.048422 5.000000 49.066500
92 1 2.189884 5.000000 33.076500
93 1 2.189884 5.000000 35.536500
94 1 2.189884 5.000000 37.996500
95 1 2.189884 5.000000 40.456500
96 1 2.189884 5.000000 42.916500
97 1 2.189884 5.000000 45.376500
98 1 2.189884 5.000000 47.836500
99 1 1.476178 5.000000 34.306500
100 1 1.476178 5.000000 36.766500
101 1 1.476178 5.000000 39.226500
102 1 1.476178 5.000000 41.686500
103 1 1.476178 5.000000 44.146500
104 1 1.476178 5.000000 46.606500
105 1 1.476178 5.000000 49.066500
106 1 3.617640 5.000000 33.076500
107 1 3.617640 5.000000 35.536500
108 1 3.617640 5.000000 37.996500
109 1 3.617640 5.000000 40.456500
110 1 3.617640 5.000000 42.916500
111 1 3.617640 5.000000 45.376500
112 1 3.617640 5.000000 47.836500
113 2 3.761204 5.000000 50.054000
114 2 6.329075 5.000000 50.054000
115 2 8.046356 5.000000 50.055000
116 2 10.612000 5.000000 50.054000
117 2 12.329281 5.000000 50.055000
118 2 14.894925 5.000000 50.054000
119 2 16.612206 5.000000 50.055000
120 2 2.046150 5.000000 50.054000
121 1 -0.039917 5.000000 8.565500
122 1 -0.039917 5.000000 12.826500
123 1 -0.039917 5.000000 17.087500
124 1 -0.039917 5.000000 21.348000
125 1 -0.039917 5.000000 9.986000
126 1 -0.039917 5.000000 14.246500
127 1 -0.039917 5.000000 18.507500
128 1 -0.039917 5.000000 22.768500
129 1 15.868066 5.000000 10.696000
130 1 15.868066 5.000000 14.957000
131 1 15.868066 5.000000 19.217500
132 1 15.868066 5.000000 23.478500
133 1 15.868066 5.000000 7.855500
134 1 15.868066 5.000000 12.116500
135 1 15.868066 5.000000 16.377000
136 1 15.868066 5.000000 20.638000
137 1 14.644348 5.000000 8.565500
138 1 14.644348 5.000000 12.826500
139 1 14.644348 5.000000 17.087500
140 1 14.644348 5.000000 21.348000
141 1 13.420631 5.000000 10.696000
142 1 13.420631 5.000000 14.957000
143 1 13.420631 5.000000 19.217500
144 1 13.420631 5.000000 23.478500
145 1 14.644348 5.000000 9.986000
146 1 14.644348 5.000000 14.246500
147 1 14.644348 5.000000 18.507500
148 1 14.644348 5.000000 22.768500
149 1 13.420631 5.000000 7.855500
150 1 13.420631 5.000000 12.116500
151 1 13.420631 5.000000 16.377000
152 1 13.420631 5.000000 20.638000
153 1 12.197085 5.000000 8.565500
154 1 12.197085 5.000000 12.826500
155 1 12.197085 5.000000 17.087500
156 1 12.197085 5.000000 21.348000
157 1 10.973368 5.000000 10.696000
158 1 10.973368 5.000000 14.957000
159 1 10.973368 5.000000 19.217500
160 1 10.973368 5.000000 23.478500
161 1 12.197085 5.000000 9.986000
162 1 12.197085 5.000000 14.246500
163 1 12.197085 5.000000 18.507500
164 1 12.197085 5.000000 22.768500
165 1 10.973368 5.000000 7.855500
166 1 10.973368 5.000000 12.116500
167 1 10.973368 5.000000 16.377000
168 1 10.973368 5.000000 20.638000
169 1 9.749650 5.000000 8.565500
170 1 9.749650 5.000000 12.826500
171 1 9.749650 5.000000 17.087500
172 1 9.749650 5.000000 21.348000
173 1 8.525933 5.000000 10.696000
174 1 8.525933 5.000000 14.957000
175 1 8.525933 5.000000 19.217500
176 1 8.525933 5.000000 23.478500
177 1 9.749650 5.000000 9.986000
178 1 9.749650 5.000000 14.246500
179 1 9.749650 5.000000 18.507500
180 1 9.749650 5.000000 22.768500
181 1 8.525933 5.000000 7.855500
182 1 8.525933 5.000000 12.116500
183 1 8.525933 5.000000 16.377000
184 1 8.525933 5.000000 20.638000
185 1 7.302216 5.000000 8.565500
186 1 7.302216 5.000000 12.826500
187 1 7.302216 5.000000 17.087500
188 1 7.302216 5.000000 21.348000
189 1 6.078498 5.000000 10.696000
190 1 6.078498 5.000000 14.957000
191 1 6.078498 5.000000 19.217500
192 1 6.078498 5.000000 23.478500
193 1 7.302216 5.000000 9.986000
194 1 7.302216 5.000000 14.246500
195 1 7.302216 5.000000 18.507500
196 1 7.302216 5.000000 22.768500
197 1 6.078498 5.000000 7.855500
198 1 6.078498 5.000000 12.116500
199 1 6.078498 5.000000 16.377000
200 1 6.078498 5.000000 20.638000
201 1 4.854781 5.000000 8.565500
202 1 4.854781 5.000000 12.826500
203 1 4.854781 5.000000 17.087500
204 1 4.854781 5.000000 21.348000
205 1 3.631235 5.000000 10.696000
206 1 3.631235 5.000000 14.957000
207 1 3.631235 5.000000 19.217500
208 1 3.631235 5.000000 23.478500
209 1 4.854781 5.000000 9.986000
210 1 4.854781 5.000000 14.246500
211 1 4.854781 5.000000 18.507500
212 1 4.854781 5.000000 22.768500
213 1 3.631235 5.000000 7.855500
214 1 3.631235 5.000000 12.116500
215 1 3.631235 5.000000 16.377000
216 1 3.631235 5.000000 20.638000
217 1 2.407518 5.000000 8.565500
218 1 2.407518 5.000000 12.826500
219 1 2.407518 5.000000 17.087500
220 1 2.407518 5.000000 21.348000
221 1 1.183800 5.000000 10.696000
222 1 1.183800 5.000000 14.957000
223 1 1.183800 5.000000 19.217500
224 1 1.183800 5.000000 23.478500
225 1 2.407518 5.000000 9.986000
226 1 2.407518 5.000000 14.246500
227 1 2.407518 5.000000 18.507500
228 1 2.407518 5.000000 22.768500
229 1 1.183800 5.000000 7.855500
230 1 1.183800 5.000000 12.116500
231 1 1.183800 5.000000 16.377000
232 1 1.183800 5.000000 20.638000
233 2 15.865667 5.000000 6.715500
234 2 13.423030 5.000000 6.715500
235 2 10.975766 5.000000 6.715500
236 2 8.528332 5.000000 6.715500
237 2 6.080897 5.000000 6.715500
238 2 3.633634 5.000000 6.715500
239 2 1.181402 5.000000 6.715500
240 2 6.508967 1.862336 23.951142
241 2 0.668521 0.097741 23.500000
242 2 1.924534 5.654786 25.741208
243 2 16.953132 5.409717 24.413286
244 2 1.917768 3.344866 23.500000
245 2 7.934278 2.353417 27.467331
246 2 15.548738 7.012050 24.090203
247 2 8.278281 2.520200 25.583531
248 2 5.639170 0.356401 24.865752
249 2 4.099839 8.690158 27.782197
250 2 16.955347 8.598739 25.048012
251 2 10.476886 1.661172 23.500000
252 2 12.474275 8.268006 26.548190
253 2 13.998224 2.415676 24.305938
254 2 0.370190 8.680687 24.686008
255 2 7.624537 6.925869 26.024293
256 2 11.258365 8.571133 25.148009
257 2 0.085781 1.081540 24.201211
258 2 0.210063 8.426368 29.386181
259 2 15.268997 4.561872 31.909767
260 2 16.188639 6.081312 25.026854
261 2 1.150165 0.950149 33.000000
262 2 0.989688 3.063847 29.705461
263 2 2.368899 1.967262 31.152130
264 2 6.041584 2.887664 31.424065
265 2 9.262078 3.586253 27.178140
266 2 7.318738 3.703063 25.090857
267 2 15.846735 6.627336 23.500000
268 1 10.279981 5.821320 23.914720
269 1 9.288081 7.178021 25.669578
270 1 9.297477 7.497155 26.872997
271 1 6.323283 7.560667 26.897647
272 1 3.213315 8.880348 24.743015
273 1 1.865758 3.134128 25.088074
274 1 3.288309 4.515856 25.466521
275 1 9.434802 4.183069 23.829256
276 1 9.405507 7.891386 24.787663
277 1 14.123060 0.484209 24.116309
278 1 1.172502 0.581101 26.944476
279 1 0.054916 3.066050 25.090567
280 1 4.750510 2.836225 24.185512
281 1 10.439634 3.874674 26.218035
282 1 9.897141 6.423223 31.680176
283 1 11.840025 0.672394 24.951565
284 1 11.976841 4.375289 33.000000
285 1 13.755511 4.567779 30.165113
286 1 11.482443 1.054097 24.520432
287 1 2.083708 1.910774 26.004596
288 1 4.709961 2.386532 25.256225
289 1 12.308273 2.504366 32.734703
290 1 10.698909 4.655673 32.999727
291 1 15.599899 1.743096 32.312634
292 1 13.083711 9.568507 32.502433
293 1 9.687024 3.142272 32.993416
294 1 2.575701 0.141975 27.174482
295 1 7.688290 1.937794 33.000000
296 1 15.008983 0.683668 33.000000
297 1 1.537618 0.162726 30.111870
298 1 4.218372 2.162412 31.029406
299 1 16.881970 8.429300 32.331886
300 1 0.441924 9.812057 31.460901
