300
Atoms. Timestep: 0
34034592              4.331347                     5               34.3065
34034592              4.331347                     5               36.7665
34034592              4.331347                     5               39.2265
34034592              4.331347                     5               41.6865
34034592              4.331347                     5               44.1465
34034592              4.331347                     5               46.6065
34034592              4.331347                     5               49.0665
34034592              6.472809                     5               33.0765
34034592              6.472809                     5               35.5365
34034592              6.472809                     5               37.9965
34034592              6.472809                     5               40.4565
34034592              6.472809                     5               42.9165
34034592              6.472809                     5               45.3765
34034592              6.472809                     5               47.8365
34034592              5.759103                     5               34.3065
34034592              5.759103                     5               36.7665
34034592              5.759103                     5               39.2265
34034592              5.759103                     5               41.6865
34034592              5.759103                     5               44.1465
34034592              5.759103                     5               46.6065
34034592              5.759103                     5               49.0665
34034592              7.900565                     5               33.0765
34034592              7.900565                     5               35.5365
34034592              7.900565                     5               37.9965
34034592              7.900565                     5               40.4565
34034592              7.900565                     5               42.9165
34034592              7.900565                     5               45.3765
34034592              7.900565                     5               47.8365
34034592              8.614272                     5               34.3065
34034592              8.614272                     5               36.7665
34034560              8.614272                     5               39.2265
34034560              8.614272                     5               41.6865
34034560              8.614272                     5               44.1465
34034560              8.614272                     5               46.6065
34034560              8.614272                     5               49.0665
34034560             10.755734                     5               33.0765
34034560             10.755734                     5               35.5365
34034560             10.755734                     5               37.9965
34034560             10.755734                     5               40.4565
34034560             10.755734                     5               42.9165
34034560             10.755734                     5               45.3765
34034560             10.755734                     5               47.8365
34034560             10.042028                     5               34.3065
34034560             10.042028                     5               36.7665
34034560             10.042028                     5               39.2265
34034560             10.042028                     5               41.6865
34034560             10.042028                     5               44.1465
34034560             10.042028                     5               46.6065
34034560             10.042028                     5               49.0665
34034560              12.18349                     5               33.0765
34034560              12.18349                     5               35.5365
34034560              12.18349                     5               37.9965
34034560              12.18349                     5               40.4565
34034560              12.18349                     5               42.9165
34034560              12.18349                     5               45.3765
34034560              12.18349                     5               47.8365
34034560             12.897197                     5               34.3065
34034560             12.897197                     5               36.7665
34034560             12.897197                     5               39.2265
34034560             12.897197                     5               41.6865
34034560             12.897197                     5               44.1465
34034560             12.897197                     5               46.6065
34034560             12.897197                     5               49.0665
34034560             15.038659                     5               33.0765
34034560             15.038659                     5               35.5365
34034560             15.038659                     5               37.9965
34034560             15.038659                     5               40.4565
34034560             15.038659                     5               42.9165
34034560             15.038659                     5               45.3765
34034560             15.038659                     5               47.8365
34034560             14.324953                     5               34.3065
34034560             14.324953                     5               36.7665
34034560             14.324953                     5               39.2265
34034560             14.324953                     5               41.6865
34034560             14.324953                     5               44.1465
34034560             14.324953                     5               46.6065
34034560             14.324953                     5               49.0665
34034560             16.466415                     5               33.0765
34034560             16.466415                     5               35.5365
34034560             16.466415                     5               37.9965
34034560             16.466415                     5               40.4565
34034560             16.466415                     5               42.9165
34034560             16.466415                     5               45.3765
34034560             16.466415                     5               47.8365
34034560              0.048422                     5               34.3065
34034560              0.048422                     5               36.7665
34034560              0.048422                     5               39.2265
34034560              0.048422                     5               41.6865
34034560              0.048422                     5               44.1465
34034560              0.048422                     5               46.6065
34034560              0.048422                     5               49.0665
34034560              2.189884                     5               33.0765
34034560              2.189884                     5               35.5365
34034560              2.189884                     5               37.9965
34034560              2.189884                     5               40.4565
34034560              2.189884                     5               42.9165
34034560              2.189884                     5               45.3765
34034560              2.189884                     5               47.8365
34034560              1.476178                     5               34.3065
34034560              1.476178                     5               36.7665
34034560              1.476178                     5               39.2265
34034560              1.476178                     5               41.6865
34034560              1.476178                     5               44.1465
34034560              1.476178                     5               46.6065
34034560              1.476178                     5               49.0665
34034560               3.61764                     5               33.0765
34034560               3.61764                     5               35.5365
34034560               3.61764                     5               37.9965
34034560               3.61764                     5               40.4565
34034560               3.61764                     5               42.9165
34034560               3.61764                     5               45.3765
34034560               3.61764                     5               47.8365
34034592              3.761204                     5     0.054000000000002
34034592              6.329075                     5     0.054000000000002
34034592              8.046356                     5    0.0549999999999997
34034592                10.612                     5     0.054000000000002
34034592             12.329281                     5    0.0549999999999997
34034592             14.894925                     5     0.054000000000002
34034592             16.612206                     5    0.0549999999999997
34034592               2.04615                     5     0.054000000000002
34034560             17.091783                     5                8.5655
34034560             17.091783                     5               12.8265
34034560             17.091783                     5               17.0875
34034560             17.091783                     5                21.348
34034560             17.091783                     5                 9.986
34034560             17.091783                     5               14.2465
34034560             17.091783                     5               18.5075
34034560             17.091783                     5               22.7685
34034560             15.868066                     5                10.696
34034560             15.868066                     5                14.957
34034560             15.868066                     5               19.2175
34034560             15.868066                     5               23.4785
34034560             15.868066                     5                7.8555
34034560             15.868066                     5               12.1165
34034560             15.868066                     5                16.377
34034560             15.868066                     5                20.638
34034560             14.644348                     5                8.5655
34034560             14.644348                     5               12.8265
34034560             14.644348                     5               17.0875
34034560             14.644348                     5                21.348
34034560             13.420631                     5                10.696
34034560             13.420631                     5                14.957
34034560             13.420631                     5               19.2175
34034560             13.420631                     5               23.4785
34034560             14.644348                     5                 9.986
34034560             14.644348                     5               14.2465
34034560             14.644348                     5               18.5075
34034560             14.644348                     5               22.7685
34034560             13.420631                     5                7.8555
34034560             13.420631                     5               12.1165
34034560             13.420631                     5                16.377
34034560             13.420631                     5                20.638
34034560             12.197085                     5                8.5655
34034560             12.197085                     5               12.8265
34034560             12.197085                     5               17.0875
34034560             12.197085                     5                21.348
34034560             10.973368                     5                10.696
34034560             10.973368                     5                14.957
34034560             10.973368                     5               19.2175
34034560             10.973368                     5               23.4785
34034560             12.197085                     5                 9.986
34034560             12.197085                     5               14.2465
34034560             12.197085                     5               18.5075
34034560             12.197085                     5               22.7685
34034560             10.973368                     5                7.8555
34034560             10.973368                     5               12.1165
34034560             10.973368                     5                16.377
34034560             10.973368                     5                20.638
34034560               9.74965                     5                8.5655
34034560               9.74965                     5               12.8265
34034560               9.74965                     5               17.0875
34034560               9.74965                     5                21.348
34034560              8.525933                     5                10.696
34034560              8.525933                     5                14.957
34034560              8.525933                     5               19.2175
34034560              8.525933                     5               23.4785
34034560               9.74965                     5                 9.986
34034560               9.74965                     5               14.2465
34034560               9.74965                     5               18.5075
34034560               9.74965                     5               22.7685
34034560              8.525933                     5                7.8555
34034560              8.525933                     5               12.1165
34034560              8.525933                     5                16.377
34034560              8.525933                     5                20.638
34034560              7.302216                     5                8.5655
34034560              7.302216                     5               12.8265
34034560              7.302216                     5               17.0875
34034560              7.302216                     5                21.348
34034560              6.078498                     5                10.696
34034560              6.078498                     5                14.957
34034560              6.078498                     5               19.2175
34034560              6.078498                     5               23.4785
34034560              7.302216                     5                 9.986
34034560              7.302216                     5               14.2465
34034560              7.302216                     5               18.5075
34034560              7.302216                     5               22.7685
34034560              6.078498                     5                7.8555
34034560              6.078498                     5               12.1165
34034560              6.078498                     5                16.377
34034560              6.078498                     5                20.638
34034560              4.854781                     5                8.5655
34034560              4.854781                     5               12.8265
34034560              4.854781                     5               17.0875
34034560              4.854781                     5                21.348
34034560              3.631235                     5                10.696
34034560              3.631235                     5                14.957
34034560              3.631235                     5               19.2175
34034560              3.631235                     5               23.4785
34034560              4.854781                     5                 9.986
34034560              4.854781                     5               14.2465
34034560              4.854781                     5               18.5075
34034560              4.854781                     5               22.7685
34034560              3.631235                     5                7.8555
34034560              3.631235                     5               12.1165
34034560              3.631235                     5                16.377
34034560              3.631235                     5                20.638
34034560              2.407518                     5                8.5655
34034560              2.407518                     5               12.8265
34034560              2.407518                     5               17.0875
34034560              2.407518                     5                21.348
34034560                1.1838                     5                10.696
34034560                1.1838                     5                14.957
34034560                1.1838                     5               19.2175
34034560                1.1838                     5               23.4785
34034560              2.407518                     5                 9.986
34034560              2.407518                     5               14.2465
34034560              2.407518                     5               18.5075
34034560              2.407518                     5               22.7685
34034560                1.1838                     5                7.8555
34034560                1.1838                     5               12.1165
34034560                1.1838                     5                16.377
34034560                1.1838                     5                20.638
34034592             15.865667                     5                6.7155
34034592              13.42303                     5                6.7155
34034592             10.975766                     5                6.7155
34034592              8.528332                     5                6.7155
34034592              6.080897                     5                6.7155
34034592              3.633634                     5                6.7155
34034592              1.181402                     5                6.7155
34034592              7.795237              0.457724                  23.5
34034592             15.869848               3.43068             26.489501
34034592              0.472291               0.46518             24.356764
34034592             13.402992              1.631424             27.364285
34034592              8.845085              6.155857                  23.5
34034592              1.426556              6.282472                  23.5
34034592              9.506509              9.376438                  23.5
34034592              5.411966              4.084532             24.057408
34034592             14.422825              8.905061             26.717906
34034592              1.830742               2.90395             26.154796
34034592              8.620978              5.065432             29.148087
34034592              7.781313              3.190253             27.802014
34034592              9.101259              4.443755             29.060718
34034592             15.233957              1.255983             27.096081
34034592              0.250452              4.864322             28.676257
34034592             14.086765              4.325545             25.901028
34034592             11.665981              8.142787             27.722686
34034592             12.105025              9.224641             29.695182
34034592              6.064626              2.324396             32.855736
34034592              1.376141              5.379266             30.112861
34034592             11.755887               7.89937             28.238938
34034592               1.15604              9.672605              30.82807
34034592             12.388018              8.469236             30.913243
34034592              7.575336              5.111201                    33
34034592              11.66431              2.556767                    33
34034592              9.200872              6.957159             28.481151
34034592              9.575229              7.780373             25.792573
34034592              2.832694              8.056848             31.727702
34034560              4.945381              8.486559             25.463956
34034560              9.951614               1.16768             24.028166
34034560              8.018027              3.868163             27.383662
34034560              8.384517              9.527836             25.526253
34034560              6.094537              9.826342             27.676025
34034560             14.772625              1.722985             25.086443
34034560              7.739106              5.907974             27.000487
34034560              4.430813              0.405215             24.067935
34034560             14.297771              1.052388             25.176284
34034560              2.497582              2.785845                  23.5
34034560              9.326167              9.574871                  23.5
34034560             16.662517               9.95392             27.155924
34034560              1.865508              9.330723             25.920059
34034560              8.164079              0.736935             24.558799
34034560              4.896202               3.32639             31.149231
34034560              1.560249              2.901324             28.845478
34034560              4.689916              0.701153             29.234805
34034560              0.820691              0.703234             30.464249
34034560              7.247927              3.922345             26.898083
34034560             16.770001              9.062656             27.159085
34034560              0.026218              8.960951             27.452656
34034560              4.438621              7.329525             28.140142
34034560              2.419622              3.890772                    33
34034560              4.501852              6.114705             30.218409
34034560              7.181721              4.688766                    33
34034560             13.465029              0.077763                    33
34034560              1.659366              9.277134             29.708309
34034560             10.299423              0.810823                    33
34034560              4.368795              7.115649              29.92473
34034560              2.012764              6.603951             31.309583
34034560              2.140873              7.747256                    33
34034560              1.503276              8.798777                    33
34034560              8.481956              9.013202                    33
300
Atoms. Timestep: 10
34034592      4.32925403896346                     5      34.3146717440478
34034592      4.32925403896346                     5      36.7746717440478
34034592      4.32925403896346                     5      39.2346717440478
34034592      4.32925403896346                     5      41.6946717440478
34034592      4.32925403896346                     5      44.1546717440478
34034592      4.32925403896346                     5      46.6146717440477
34034592      4.32925403896346                     5      49.0746717440477
34034592      6.47071603896346                     5      33.0846717440478
34034592      6.47071603896346                     5      35.5446717440477
34034592      6.47071603896346                     5      38.0046717440477
34034592      6.47071603896346                     5      40.4646717440477
34034592      6.47071603896346                     5      42.9246717440477
34034592      6.47071603896346                     5      45.3846717440478
34034592      6.47071603896346                     5      47.8446717440478
34034592      5.75701003896346                     5      34.3146717440478
34034592      5.75701003896346                     5      36.7746717440478
34034592      5.75701003896346                     5      39.2346717440478
34034592      5.75701003896346                     5      41.6946717440478
34034592      5.75701003896346                     5      44.1546717440478
34034592      5.75701003896346                     5      46.6146717440477
34034592      5.75701003896346                     5      49.0746717440477
34034592      7.89847203896346                     5      33.0846717440478
34034592      7.89847203896346                     5      35.5446717440477
34034592      7.89847203896346                     5      38.0046717440477
34034592      7.89847203896346                     5      40.4646717440477
34034592      7.89847203896346                     5      42.9246717440477
34034592      7.89847203896346                     5      45.3846717440478
34034592      7.89847203896346                     5      47.8446717440478
34034592      8.61217903896346                     5      34.3146717440478
34034592      8.61217903896346                     5      36.7746717440478
34034560      8.61217903896346                     5      39.2346717440478
34034560      8.61217903896346                     5      41.6946717440478
34034560      8.61217903896346                     5      44.1546717440478
34034560      8.61217903896346                     5      46.6146717440477
34034560      8.61217903896346                     5      49.0746717440477
34034560      10.7536410389635                     5      33.0846717440478
34034560      10.7536410389635                     5      35.5446717440477
34034560      10.7536410389635                     5      38.0046717440477
34034560      10.7536410389635                     5      40.4646717440477
34034560      10.7536410389635                     5      42.9246717440477
34034560      10.7536410389635                     5      45.3846717440478
34034560      10.7536410389635                     5      47.8446717440478
34034560      10.0399350389635                     5      34.3146717440478
34034560      10.0399350389635                     5      36.7746717440478
34034560      10.0399350389635                     5      39.2346717440478
34034560      10.0399350389635                     5      41.6946717440478
34034560      10.0399350389635                     5      44.1546717440478
34034560      10.0399350389635                     5      46.6146717440477
34034560      10.0399350389635                     5      49.0746717440477
34034560      12.1813970389635                     5      33.0846717440478
34034560      12.1813970389635                     5      35.5446717440477
34034560      12.1813970389635                     5      38.0046717440477
34034560      12.1813970389635                     5      40.4646717440477
34034560      12.1813970389635                     5      42.9246717440477
34034560      12.1813970389635                     5      45.3846717440478
34034560      12.1813970389635                     5      47.8446717440478
34034560      12.8951040389635                     5      34.3146717440478
34034560      12.8951040389635                     5      36.7746717440478
34034560      12.8951040389635                     5      39.2346717440478
34034560      12.8951040389635                     5      41.6946717440478
34034560      12.8951040389635                     5      44.1546717440478
34034560      12.8951040389635                     5      46.6146717440477
34034560      12.8951040389635                     5      49.0746717440477
34034560      15.0365660389635                     5      33.0846717440478
34034560      15.0365660389635                     5      35.5446717440477
34034560      15.0365660389635                     5      38.0046717440477
34034560      15.0365660389635                     5      40.4646717440477
34034560      15.0365660389635                     5      42.9246717440477
34034560      15.0365660389635                     5      45.3846717440478
34034560      15.0365660389635                     5      47.8446717440478
34034560      14.3228600389635                     5      34.3146717440478
34034560      14.3228600389635                     5      36.7746717440478
34034560      14.3228600389635                     5      39.2346717440478
34034560      14.3228600389635                     5      41.6946717440478
34034560      14.3228600389635                     5      44.1546717440478
34034560      14.3228600389635                     5      46.6146717440477
34034560      14.3228600389635                     5      49.0746717440477
34034560      16.4643220389635                     5      33.0846717440478
34034560      16.4643220389635                     5      35.5446717440477
34034560      16.4643220389635                     5      38.0046717440477
34034560      16.4643220389635                     5      40.4646717440477
34034560      16.4643220389635                     5      42.9246717440477
34034560      16.4643220389635                     5      45.3846717440478
34034560      16.4643220389635                     5      47.8446717440478
34034560     0.046329038963463                     5      34.3146717440478
34034560     0.046329038963463                     5      36.7746717440478
34034560     0.046329038963463                     5      39.2346717440478
34034560     0.046329038963463                     5      41.6946717440478
34034560     0.046329038963463                     5      44.1546717440478
34034560     0.046329038963463                     5      46.6146717440477
34034560     0.046329038963463                     5      49.0746717440477
34034560      2.18779103896346                     5      33.0846717440478
34034560      2.18779103896346                     5      35.5446717440477
34034560      2.18779103896346                     5      38.0046717440477
34034560      2.18779103896346                     5      40.4646717440477
34034560      2.18779103896346                     5      42.9246717440477
34034560      2.18779103896346                     5      45.3846717440478
34034560      2.18779103896346                     5      47.8446717440478
34034560      1.47408503896346                     5      34.3146717440478