search structure

300 atoms
2  atom types

0   17.131700 xlo xhi
0   10.000000 ylo yhi
0   50.000000 zlo zhi

Atoms

1 2 4.331347 5.000000 34.306500
2 2 4.331347 5.000000 36.766500
3 2 4.331347 5.000000 39.226500
4 2 4.331347 5.000000 41.686500
5 2 4.331347 5.000000 44.146500
6 2 4.331347 5.000000 46.606500
7 2 4.331347 5.000000 49.066500
8 2 6.472809 5.000000 33.076500
9 2 6.472809 5.000000 35.536500
10 2 6.472809 5.000000 37.996500
11 2 6.472809 5.000000 40.456500
12 2 6.472809 5.000000 42.916500
13 2 6.472809 5.000000 45.376500
14 2 6.472809 5.000000 47.836500
15 2 5.759103 5.000000 34.306500
16 2 5.759103 5.000000 36.766500
17 2 5.759103 5.000000 39.226500
18 2 5.759103 5.000000 41.686500
19 2 5.759103 5.000000 44.146500
20 2 5.759103 5.000000 46.606500
21 2 5.759103 5.000000 49.066500
22 2 7.900565 5.000000 33.076500
23 2 7.900565 5.000000 35.536500
24 2 7.900565 5.000000 37.996500
25 2 7.900565 5.000000 40.456500
26 2 7.900565 5.000000 42.916500
27 2 7.900565 5.000000 45.376500
28 2 7.900565 5.000000 47.836500
29 2 8.614272 5.000000 34.306500
30 2 8.614272 5.000000 36.766500
31 1 8.614272 5.000000 39.226500
32 1 8.614272 5.000000 41.686500
33 1 8.614272 5.000000 44.146500
34 1 8.614272 5.000000 46.606500
35 1 8.614272 5.000000 49.066500
36 1 10.755734 5.000000 33.076500
37 1 10.755734 5.000000 35.536500
38 1 10.755734 5.000000 37.996500
39 1 10.755734 5.000000 40.456500
40 1 10.755734 5.000000 42.916500
41 1 10.755734 5.000000 45.376500
42 1 10.755734 5.000000 47.836500
43 1 10.042028 5.000000 34.306500
44 1 10.042028 5.000000 36.766500
45 1 10.042028 5.000000 39.226500
46 1 10.042028 5.000000 41.686500
47 1 10.042028 5.000000 44.146500
48 1 10.042028 5.000000 46.606500
49 1 10.042028 5.000000 49.066500
50 1 12.183490 5.000000 33.076500
51 1 12.183490 5.000000 35.536500
52 1 12.183490 5.000000 37.996500
53 1 12.183490 5.000000 40.456500
54 1 12.183490 5.000000 42.916500
55 1 12.183490 5.000000 45.376500
56 1 12.183490 5.000000 47.836500
57 1 12.897197 5.000000 34.306500
58 1 12.897197 5.000000 36.766500
59 1 12.897197 5.000000 39.226500
60 1 12.897197 5.000000 41.686500
61 1 12.897197 5.000000 44.146500
62 1 12.897197 5.000000 46.606500
63 1 12.897197 5.000000 49.066500
64 1 15.038659 5.000000 33.076500
65 1 15.038659 5.000000 35.536500
66 1 15.038659 5.000000 37.996500
67 1 15.038659 5.000000 40.456500
68 1 15.038659 5.000000 42.916500
69 1 15.038659 5.000000 45.376500
70 1 15.038659 5.000000 47.836500
71 1 14.324953 5.000000 34.306500
72 1 14.324953 5.000000 36.766500
73 1 14.324953 5.000000 39.226500
74 1 14.324953 5.000000 41.686500
75 1 14.324953 5.000000 44.146500
76 1 14.324953 5.000000 46.606500
77 1 14.324953 5.000000 49.066500
78 1 16.466415 5.000000 33.076500
79 1 16.466415 5.000000 35.536500
80 1 16.466415 5.000000 37.996500
81 1 16.466415 5.000000 40.456500
82 1 16.466415 5.000000 42.916500
83 1 16.466415 5.000000 45.376500
84 1 16.466415 5.000000 47.836500
85 1 0.048422 5.000000 34.306500
86 1 0.048422 5.000000 36.766500
87 1 0.048422 5.000000 39.226500
88 1 0.048422 5.000000 41.686500
89 1 0.048422 5.000000 44.146500
90 1 0.048422 5.000000 46.606500
91 1 0.048422 5.000000 49.066500
92 1 2.189884 5.000000 33.076500
93 1 2.189884 5.000000 35.536500
94 1 2.189884 5.000000 37.996500
95 1 2.189884 5.000000 40.456500
96 1 2.189884 5.000000 42.916500
97 1 2.189884 5.000000 45.376500
98 1 2.189884 5.000000 47.836500
99 1 1.476178 5.000000 34.306500
100 1 1.476178 5.000000 36.766500
101 1 1.476178 5.000000 39.226500
102 1 1.476178 5.000000 41.686500
103 1 1.476178 5.000000 44.146500
104 1 1.476178 5.000000 46.606500
105 1 1.476178 5.000000 49.066500
106 1 3.617640 5.000000 33.076500
107 1 3.617640 5.000000 35.536500
108 1 3.617640 5.000000 37.996500
109 1 3.617640 5.000000 40.456500
110 1 3.617640 5.000000 42.916500
111 1 3.617640 5.000000 45.376500
112 1 3.617640 5.000000 47.836500
113 2 3.761204 5.000000 50.054000
114 2 6.329075 5.000000 50.054000
115 2 8.046356 5.000000 50.055000
116 2 10.612000 5.000000 50.054000
117 2 12.329281 5.000000 50.055000
118 2 14.894925 5.000000 50.054000
119 2 16.612206 5.000000 50.055000
120 2 2.046150 5.000000 50.054000
121 1 -0.039917 5.000000 8.565500
122 1 -0.039917 5.000000 12.826500
123 1 -0.039917 5.000000 17.087500
124 1 -0.039917 5.000000 21.348000
125 1 -0.039917 5.000000 9.986000
126 1 -0.039917 5.000000 14.246500
127 1 -0.039917 5.000000 18.507500
128 1 -0.039917 5.000000 22.768500
129 1 15.868066 5.000000 10.696000
130 1 15.868066 5.000000 14.957000
131 1 15.868066 5.000000 19.217500
132 1 15.868066 5.000000 23.478500
133 1 15.868066 5.000000 7.855500
134 1 15.868066 5.000000 12.116500
135 1 15.868066 5.000000 16.377000
136 1 15.868066 5.000000 20.638000
137 1 14.644348 5.000000 8.565500
138 1 14.644348 5.000000 12.826500
139 1 14.644348 5.000000 17.087500
140 1 14.644348 5.000000 21.348000
141 1 13.420631 5.000000 10.696000
142 1 13.420631 5.000000 14.957000
143 1 13.420631 5.000000 19.217500
144 1 13.420631 5.000000 23.478500
145 1 14.644348 5.000000 9.986000
146 1 14.644348 5.000000 14.246500
147 1 14.644348 5.000000 18.507500
148 1 14.644348 5.000000 22.768500
149 1 13.420631 5.000000 7.855500
150 1 13.420631 5.000000 12.116500
151 1 13.420631 5.000000 16.377000
152 1 13.420631 5.000000 20.638000
153 1 12.197085 5.000000 8.565500
154 1 12.197085 5.000000 12.826500
155 1 12.197085 5.000000 17.087500
156 1 12.197085 5.000000 21.348000
157 1 10.973368 5.000000 10.696000
158 1 10.973368 5.000000 14.957000
159 1 10.973368 5.000000 19.217500
160 1 10.973368 5.000000 23.478500
161 1 12.197085 5.000000 9.986000
162 1 12.197085 5.000000 14.246500
163 1 12.197085 5.000000 18.507500
164 1 12.197085 5.000000 22.768500
165 1 10.973368 5.000000 7.855500
166 1 10.973368 5.000000 12.116500
167 1 10.973368 5.000000 16.377000
168 1 10.973368 5.000000 20.638000
169 1 9.749650 5.000000 8.565500
170 1 9.749650 5.000000 12.826500
171 1 9.749650 5.000000 17.087500
172 1 9.749650 5.000000 21.348000
173 1 8.525933 5.000000 10.696000
174 1 8.525933 5.000000 14.957000
175 1 8.525933 5.000000 19.217500
176 1 8.525933 5.000000 23.478500
177 1 9.749650 5.000000 9.986000
178 1 9.749650 5.000000 14.246500
179 1 9.749650 5.000000 18.507500
180 1 9.749650 5.000000 22.768500
181 1 8.525933 5.000000 7.855500
182 1 8.525933 5.000000 12.116500
183 1 8.525933 5.000000 16.377000
184 1 8.525933 5.000000 20.638000
185 1 7.302216 5.000000 8.565500
186 1 7.302216 5.000000 12.826500
187 1 7.302216 5.000000 17.087500
188 1 7.302216 5.000000 21.348000
189 1 6.078498 5.000000 10.696000
190 1 6.078498 5.000000 14.957000
191 1 6.078498 5.000000 19.217500
192 1 6.078498 5.000000 23.478500
193 1 7.302216 5.000000 9.986000
194 1 7.302216 5.000000 14.246500
195 1 7.302216 5.000000 18.507500
196 1 7.302216 5.000000 22.768500
197 1 6.078498 5.000000 7.855500
198 1 6.078498 5.000000 12.116500
199 1 6.078498 5.000000 16.377000
200 1 6.078498 5.000000 20.638000
201 1 4.854781 5.000000 8.565500
202 1 4.854781 5.000000 12.826500
203 1 4.854781 5.000000 17.087500
204 1 4.854781 5.000000 21.348000
205 1 3.631235 5.000000 10.696000
206 1 3.631235 5.000000 14.957000
207 1 3.631235 5.000000 19.217500
208 1 3.631235 5.000000 23.478500
209 1 4.854781 5.000000 9.986000
210 1 4.854781 5.000000 14.246500
211 1 4.854781 5.000000 18.507500
212 1 4.854781 5.000000 22.768500
213 1 3.631235 5.000000 7.855500
214 1 3.631235 5.000000 12.116500
215 1 3.631235 5.000000 16.377000
216 1 3.631235 5.000000 20.638000
217 1 2.407518 5.000000 8.565500
218 1 2.407518 5.000000 12.826500
219 1 2.407518 5.000000 17.087500
220 1 2.407518 5.000000 21.348000
221 1 1.183800 5.000000 10.696000
222 1 1.183800 5.000000 14.957000
223 1 1.183800 5.000000 19.217500
224 1 1.183800 5.000000 23.478500
225 1 2.407518 5.000000 9.986000
226 1 2.407518 5.000000 14.246500
227 1 2.407518 5.000000 18.507500
228 1 2.407518 5.000000 22.768500
229 1 1.183800 5.000000 7.855500
230 1 1.183800 5.000000 12.116500
231 1 1.183800 5.000000 16.377000
232 1 1.183800 5.000000 20.638000
233 2 15.865667 5.000000 6.715500
234 2 13.423030 5.000000 6.715500
235 2 10.975766 5.000000 6.715500
236 2 8.528332 5.000000 6.715500
237 2 6.080897 5.000000 6.715500
238 2 3.633634 5.000000 6.715500
239 2 1.181402 5.000000 6.715500
240 2 7.795237 0.457724 23.500000
241 2 15.869848 3.430680 26.489501
242 2 0.472291 0.465180 24.356764
243 2 13.402992 1.631424 27.364285
244 2 8.845085 6.155857 23.500000
245 2 1.426556 6.282472 23.500000
246 2 9.506509 9.376438 23.500000
247 2 5.411966 4.084532 24.057408
248 2 14.422825 8.905061 26.717906
249 2 1.830742 2.903950 26.154796
250 2 8.620978 5.065432 29.148087
251 2 7.781313 3.190253 27.802014
252 2 9.101259 4.443755 29.060718
253 2 15.233957 1.255983 27.096081
254 2 0.250452 4.864322 28.676257
255 2 14.086765 4.325545 25.901028
256 2 11.665981 8.142787 27.722686
257 2 12.105025 9.224641 29.695182
258 2 6.064626 2.324396 32.855736
259 2 1.376141 5.379266 30.112861
260 2 11.755887 7.899370 28.238938
261 2 1.156040 9.672605 30.828070
262 2 12.388018 8.469236 30.913243
263 2 7.575336 5.111201 33.000000
264 2 11.664310 2.556767 33.000000
265 2 9.200872 6.957159 28.481151
266 2 9.575229 7.780373 25.792573
267 2 2.832694 8.056848 31.727702
268 1 4.945381 8.486559 25.463956
269 1 9.951614 1.167680 24.028166
270 1 8.018027 3.868163 27.383662
271 1 8.384517 9.527836 25.526253
272 1 6.094537 9.826342 27.676025
273 1 14.772625 1.722985 25.086443
274 1 7.739106 5.907974 27.000487
275 1 4.430813 0.405215 24.067935
276 1 14.297771 1.052388 25.176284
277 1 2.497582 2.785845 23.500000
278 1 9.326167 9.574871 23.500000
279 1 16.662517 9.953920 27.155924
280 1 1.865508 9.330723 25.920059
281 1 8.164079 0.736935 24.558799
282 1 4.896202 3.326390 31.149231
283 1 1.560249 2.901324 28.845478
284 1 4.689916 0.701153 29.234805
285 1 0.820691 0.703234 30.464249
286 1 7.247927 3.922345 26.898083
287 1 16.770001 9.062656 27.159085
288 1 0.026218 8.960951 27.452656
289 1 4.438621 7.329525 28.140142
290 1 2.419622 3.890772 33.000000
291 1 4.501852 6.114705 30.218409
292 1 7.181721 4.688766 33.000000
293 1 13.465029 0.077763 33.000000
294 1 1.659366 9.277134 29.708309
295 1 10.299423 0.810823 33.000000
296 1 4.368795 7.115649 29.924730
297 1 2.012764 6.603951 31.309583
298 1 2.140873 7.747256 33.000000
299 1 1.503276 8.798777 33.000000
300 1 8.481956 9.013202 33.000000
