300
Atoms. Timestep: 0
71476128              2.298916                     5               34.3065
71476128              2.298916                     5               36.7665
71476128              2.298916                     5               39.2265
71476128              2.298916                     5               41.6865
71476128              2.298916                     5               44.1465
71476128              2.298916                     5               46.6065
71476128              2.298916                     5               49.0665
71476128              4.440378                     5               33.0765
71476128              4.440378                     5               35.5365
71476128              4.440378                     5               37.9965
71476128              4.440378                     5               40.4565
71476128              4.440378                     5               42.9165
71476128              4.440378                     5               45.3765
71476128              4.440378                     5               47.8365
71476128              3.726672                     5               34.3065
71476128              3.726672                     5               36.7665
71476128              3.726672                     5               39.2265
71476128              3.726672                     5               41.6865
71476128              3.726672                     5               44.1465
71476128              3.726672                     5               46.6065
71476128              3.726672                     5               49.0665
71476128              5.868134                     5               33.0765
71476128              5.868134                     5               35.5365
71476128              5.868134                     5               37.9965
71476128              5.868134                     5               40.4565
71476128              5.868134                     5               42.9165
71476128              5.868134                     5               45.3765
71476128              5.868134                     5               47.8365
71476128              6.581841                     5               34.3065
71476128              6.581841                     5               36.7665
71476096              6.581841                     5               39.2265
71476096              6.581841                     5               41.6865
71476096              6.581841                     5               44.1465
71476096              6.581841                     5               46.6065
71476096              6.581841                     5               49.0665
71476096              8.723303                     5               33.0765
71476096              8.723303                     5               35.5365
71476096              8.723303                     5               37.9965
71476096              8.723303                     5               40.4565
71476096              8.723303                     5               42.9165
71476096              8.723303                     5               45.3765
71476096              8.723303                     5               47.8365
71476096              8.009597                     5               34.3065
71476096              8.009597                     5               36.7665
71476096              8.009597                     5               39.2265
71476096              8.009597                     5               41.6865
71476096              8.009597                     5               44.1465
71476096              8.009597                     5               46.6065
71476096              8.009597                     5               49.0665
71476096             10.151059                     5               33.0765
71476096             10.151059                     5               35.5365
71476096             10.151059                     5               37.9965
71476096             10.151059                     5               40.4565
71476096             10.151059                     5               42.9165
71476096             10.151059                     5               45.3765
71476096             10.151059                     5               47.8365
71476096             10.864766                     5               34.3065
71476096             10.864766                     5               36.7665
71476096             10.864766                     5               39.2265
71476096             10.864766                     5               41.6865
71476096             10.864766                     5               44.1465
71476096             10.864766                     5               46.6065
71476096             10.864766                     5               49.0665
71476096             13.006228                     5               33.0765
71476096             13.006228                     5               35.5365
71476096             13.006228                     5               37.9965
71476096             13.006228                     5               40.4565
71476096             13.006228                     5               42.9165
71476096             13.006228                     5               45.3765
71476096             13.006228                     5               47.8365
71476096             12.292522                     5               34.3065
71476096             12.292522                     5               36.7665
71476096             12.292522                     5               39.2265
71476096             12.292522                     5               41.6865
71476096             12.292522                     5               44.1465
71476096             12.292522                     5               46.6065
71476096             12.292522                     5               49.0665
71476096             14.433984                     5               33.0765
71476096             14.433984                     5               35.5365
71476096             14.433984                     5               37.9965
71476096             14.433984                     5               40.4565
71476096             14.433984                     5               42.9165
71476096             14.433984                     5               45.3765
71476096             14.433984                     5               47.8365
71476096             15.147691                     5               34.3065
71476096             15.147691                     5               36.7665
71476096             15.147691                     5               39.2265
71476096             15.147691                     5               41.6865
71476096             15.147691                     5               44.1465
71476096             15.147691                     5               46.6065
71476096             15.147691                     5               49.0665
71476096              0.157453                     5               33.0765
71476096              0.157453                     5               35.5365
71476096              0.157453                     5               37.9965
71476096              0.157453                     5               40.4565
71476096              0.157453                     5               42.9165
71476096              0.157453                     5               45.3765
71476096              0.157453                     5               47.8365
71476096             16.575447                     5               34.3065
71476096             16.575447                     5               36.7665
71476096             16.575447                     5               39.2265
71476096             16.575447                     5               41.6865
71476096             16.575447                     5               44.1465
71476096             16.575447                     5               46.6065
71476096             16.575447                     5               49.0665
71476096              1.585209                     5               33.0765
71476096              1.585209                     5               35.5365
71476096              1.585209                     5               37.9965
71476096              1.585209                     5               40.4565
71476096              1.585209                     5               42.9165
71476096              1.585209                     5               45.3765
71476096              1.585209                     5               47.8365
71476128              1.728773                     5     0.054000000000002
71476128              4.296644                     5     0.054000000000002
71476128              6.013925                     5    0.0549999999999997
71476128              8.579569                     5     0.054000000000002
71476128              10.29685                     5    0.0549999999999997
71476128             12.862494                     5     0.054000000000002
71476128             14.579775                     5    0.0549999999999997
71476128              0.013719                     5     0.054000000000002
71476096             17.091783                     5                8.5655
71476096             17.091783                     5               12.8265
71476096             17.091783                     5               17.0875
71476096             17.091783                     5                21.348
71476096             17.091783                     5                 9.986
71476096             17.091783                     5               14.2465
71476096             17.091783                     5               18.5075
71476096             17.091783                     5               22.7685
71476096             15.868066                     5                10.696
71476096             15.868066                     5                14.957
71476096             15.868066                     5               19.2175
71476096             15.868066                     5               23.4785
71476096             15.868066                     5                7.8555
71476096             15.868066                     5               12.1165
71476096             15.868066                     5                16.377
71476096             15.868066                     5                20.638
71476096             14.644348                     5                8.5655
71476096             14.644348                     5               12.8265
71476096             14.644348                     5               17.0875
71476096             14.644348                     5                21.348
71476096             13.420631                     5                10.696
71476096             13.420631                     5                14.957
71476096             13.420631                     5               19.2175
71476096             13.420631                     5               23.4785
71476096             14.644348                     5                 9.986
71476096             14.644348                     5               14.2465
71476096             14.644348                     5               18.5075
71476096             14.644348                     5               22.7685
71476096             13.420631                     5                7.8555
71476096             13.420631                     5               12.1165
71476096             13.420631                     5                16.377
71476096             13.420631                     5                20.638
71476096             12.197085                     5                8.5655
71476096             12.197085                     5               12.8265
71476096             12.197085                     5               17.0875
71476096             12.197085                     5                21.348
71476096             10.973368                     5                10.696
71476096             10.973368                     5                14.957
71476096             10.973368                     5               19.2175
71476096             10.973368                     5               23.4785
71476096             12.197085                     5                 9.986
71476096             12.197085                     5               14.2465
71476096             12.197085                     5               18.5075
71476096             12.197085                     5               22.7685
71476096             10.973368                     5                7.8555
71476096             10.973368                     5               12.1165
71476096             10.973368                     5                16.377
71476096             10.973368                     5                20.638
71476096               9.74965                     5                8.5655
71476096               9.74965                     5               12.8265
71476096               9.74965                     5               17.0875
71476096               9.74965                     5                21.348
71476096              8.525933                     5                10.696
71476096              8.525933                     5                14.957
71476096              8.525933                     5               19.2175
71476096              8.525933                     5               23.4785
71476096               9.74965                     5                 9.986
71476096               9.74965                     5               14.2465
71476096               9.74965                     5               18.5075
71476096               9.74965                     5               22.7685
71476096              8.525933                     5                7.8555
71476096              8.525933                     5               12.1165
71476096              8.525933                     5                16.377
71476096              8.525933                     5                20.638
71476096              7.302216                     5                8.5655
71476096              7.302216                     5               12.8265
71476096              7.302216                     5               17.0875
71476096              7.302216                     5                21.348
71476096              6.078498                     5                10.696
71476096              6.078498                     5                14.957
71476096              6.078498                     5               19.2175
71476096              6.078498                     5               23.4785
71476096              7.302216                     5                 9.986
71476096              7.302216                     5               14.2465
71476096              7.302216                     5               18.5075
71476096              7.302216                     5               22.7685
71476096              6.078498                     5                7.8555
71476096              6.078498                     5               12.1165
71476096              6.078498                     5                16.377
71476096              6.078498                     5                20.638
71476096              4.854781                     5                8.5655
71476096              4.854781                     5               12.8265
71476096              4.854781                     5               17.0875
71476096              4.854781                     5                21.348
71476096              3.631235                     5                10.696
71476096              3.631235                     5                14.957
71476096              3.631235                     5               19.2175
71476096              3.631235                     5               23.4785
71476096              4.854781                     5                 9.986
71476096              4.854781                     5               14.2465
71476096              4.854781                     5               18.5075
71476096              4.854781                     5               22.7685
71476096              3.631235                     5                7.8555
71476096              3.631235                     5               12.1165
71476096              3.631235                     5                16.377
71476096              3.631235                     5                20.638
71476096              2.407518                     5                8.5655
71476096              2.407518                     5               12.8265
71476096              2.407518                     5               17.0875
71476096              2.407518                     5                21.348
71476096                1.1838                     5                10.696
71476096                1.1838                     5                14.957
71476096                1.1838                     5               19.2175
71476096                1.1838                     5               23.4785
71476096              2.407518                     5                 9.986
71476096              2.407518                     5               14.2465
71476096              2.407518                     5               18.5075
71476096              2.407518                     5               22.7685
71476096                1.1838                     5                7.8555
71476096                1.1838                     5               12.1165
71476096                1.1838                     5                16.377
71476096                1.1838                     5                20.638
71476128             15.865667                     5                6.7155
71476128              13.42303                     5                6.7155
71476128             10.975766                     5                6.7155
71476128              8.528332                     5                6.7155
71476128              6.080897                     5                6.7155
71476128              3.633634                     5                6.7155
71476128              1.181402                     5                6.7155
71476128              7.557997              9.153308                  23.5
71476128               12.7773               2.94416              23.82613
71476128             12.963502                 6.189                  23.5
71476128              2.277349              6.784181             24.242544
71476128              1.844158              1.442801                  23.5
71476128             14.184797              2.569133                  23.5
71476128              0.141215              6.338837                  23.5
71476128             13.740263              8.784674              24.85306
71476128             16.427096              1.360725             25.430658
71476128              4.657128              7.282422             25.493541
71476128              4.374939              0.380596             27.811254
71476128              9.959697              9.606396             26.651274
71476128              5.082477              4.181068             24.853515
71476128               8.29943              0.230438             25.095481
71476128             11.300475              2.986166              25.01944
71476128              5.221836              3.586235             25.738771
71476128              8.219254              2.683411             25.392869
71476128               0.95038               6.31128             27.068612
71476128              8.500058              1.486363             30.290435
71476128             14.825394              7.336485             30.717366
71476128              6.532995              6.749199             26.556844
71476128               0.01851              6.952778                    33
71476128              4.941145              8.543042             28.983257
71476128              6.249704              6.505595             29.466753
71476128              9.780604              6.717131             29.371236
71476128              9.630605              5.590853             29.653684
71476128              0.181189              7.202839             31.961163
71476128             14.642212              9.251719             27.143925
71476096             16.434926              4.614468             24.038795
71476096              4.872189              9.401756             25.231241
71476096               3.58322               6.85834             26.963499
71476096             10.961409              1.359751             27.460543
71476096              5.389255              1.603037                  23.5
71476096              8.851851              3.053787              26.12191
71476096             10.071743              6.172498             25.096477
71476096              9.615884              8.397567             25.048966
71476096              0.578635              6.947672             24.357493
71476096             11.865728              0.178417             24.828141
71476096              0.109998              9.046295             25.037459
71476096               1.89455              8.038514             27.721006
71476096              3.239684              0.214858             25.491287
71476096              4.424373               8.76984             25.444759
71476096              0.482886              1.859728             29.019156
71476096               1.05495              5.286148                  23.5
71476096             13.095204              7.587685             26.393596
71476096             15.317834              1.044648             29.333705
71476096              7.681873              5.059028             26.065504
71476096              7.131414              7.152152             25.313561
71476096             16.867096              9.201885             24.449101
71476096              7.957263              0.545018             31.084231
71476096             15.958309              1.875123                    33
71476096              4.765601              0.381683             30.966333
71476096             12.182784              1.611931             30.326523
71476096              5.516613              0.100955             31.868459
71476096             12.341266               9.61811             27.934102
71476096             15.914537              2.696874             32.601952
71476096             15.115621              8.959693             31.033999
71476096             10.253269              9.268732               28.8357
71476096             11.191573              1.498731                    33
71476096             13.118781              2.070729             31.895595
71476096              15.69503              1.612625                    33
300
Atoms. Timestep: 10
71476128      2.29892924133776                     5      34.3065143454653
71476128      2.29892924133776                     5      36.7665143454653
71476128      2.29892924133776                     5      39.2265143454653
71476128      2.29892924133776                     5      41.6865143454653
71476128      2.29892924133776                     5      44.1465143454653
71476128      2.29892924133776                     5      46.6065143454653
71476128      2.29892924133776                     5      49.0665143454653
71476128      4.44039124133776                     5      33.0765143454653
71476128      4.44039124133776                     5      35.5365143454653
71476128      4.44039124133776                     5      37.9965143454653
71476128      4.44039124133776                     5      40.4565143454653
71476128      4.44039124133776                     5      42.9165143454653
71476128      4.44039124133776                     5      45.3765143454653
71476128      4.44039124133776                     5      47.8365143454653
71476128      3.72668524133776                     5      34.3065143454653
71476128      3.72668524133776                     5      36.7665143454653
71476128      3.72668524133776                     5      39.2265143454653
71476128      3.72668524133776                     5      41.6865143454653
71476128      3.72668524133776                     5      44.1465143454653
71476128      3.72668524133776                     5      46.6065143454653
71476128      3.72668524133776                     5      49.0665143454653
71476128      5.86814724133776                     5      33.0765143454653
71476128      5.86814724133776                     5      35.5365143454653
71476128      5.86814724133776                     5      37.9965143454653
71476128      5.86814724133776                     5      40.4565143454653
71476128      5.86814724133776                     5      42.9165143454653
71476128      5.86814724133776                     5      45.3765143454653
71476128      5.86814724133776                     5      47.8365143454653
71476128      6.58185424133776                     5      34.3065143454653
71476128      6.58185424133776                     5      36.7665143454653
71476096      6.58185424133776                     5      39.2265143454653
71476096      6.58185424133776                     5      41.6865143454653
71476096      6.58185424133776                     5      44.1465143454653
71476096      6.58185424133776                     5      46.6065143454653
71476096      6.58185424133776                     5      49.0665143454653
71476096      8.72331624133776                     5      33.0765143454653
71476096      8.72331624133776                     5      35.5365143454653
71476096      8.72331624133776                     5      37.9965143454653
71476096      8.72331624133776                     5      40.4565143454653
71476096      8.72331624133776                     5      42.9165143454653
71476096      8.72331624133776                     5      45.3765143454653
71476096      8.72331624133776                     5      47.8365143454653
71476096      8.00961024133776                     5      34.3065143454653
71476096      8.00961024133776                     5      36.7665143454653
71476096      8.00961024133776                     5      39.2265143454653
71476096      8.00961024133776                     5      41.6865143454653
71476096      8.00961024133776                     5      44.1465143454653
71476096      8.00961024133776                     5      46.6065143454653
71476096      8.00961024133776                     5      49.0665143454653
71476096      10.1510722413378                     5      33.0765143454653
71476096      10.1510722413378                     5      35.5365143454653
71476096      10.1510722413378                     5      37.9965143454653
71476096      10.1510722413378                     5      40.4565143454653
71476096      10.1510722413378                     5      42.9165143454653
71476096      10.1510722413378                     5      45.3765143454653
71476096      10.1510722413378                     5      47.8365143454653
71476096      10.8647792413378                     5      34.3065143454653
71476096      10.8647792413378                     5      36.7665143454653
71476096      10.8647792413378                     5      39.2265143454653
71476096      10.8647792413378                     5      41.6865143454653
71476096      10.8647792413378                     5      44.1465143454653
71476096      10.8647792413378                     5      46.6065143454653
71476096      10.8647792413378                     5      49.0665143454653
71476096      13.0062412413378                     5      33.0765143454653
71476096      13.0062412413378                     5      35.5365143454653
71476096      13.0062412413378                     5      37.9965143454653
71476096      13.0062412413378                     5      40.4565143454653
71476096      13.0062412413378                     5      42.9165143454653
71476096      13.0062412413378                     5      45.3765143454653
71476096      13.0062412413378                     5      47.8365143454653
71476096      12.2925352413378                     5      34.3065143454653
71476096      12.2925352413378                     5      36.7665143454653
71476096      12.2925352413378                     5      39.2265143454653
71476096      12.2925352413378                     5      41.6865143454653
71476096      12.2925352413378                     5      44.1465143454653
71476096      12.2925352413378                     5      46.6065143454653
71476096      12.2925352413378                     5      49.0665143454653
71476096      14.4339972413378                     5      33.0765143454653
71476096      14.4339972413378                     5      35.5365143454653
71476096      14.4339972413378                     5      37.9965143454653
71476096      14.4339972413378                     5      40.4565143454653
71476096      14.4339972413378                     5      42.9165143454653
71476096      14.4339972413378                     5      45.3765143454653
71476096      14.4339972413378                     5      47.8365143454653
71476096      15.1477042413378                     5      34.3065143454653
71476096      15.1477042413378                     5      36.7665143454653
71476096      15.1477042413378                     5      39.2265143454653
71476096      15.1477042413378                     5      41.6865143454653
71476096      15.1477042413378                     5      44.1465143454653
71476096      15.1477042413378                     5      46.6065143454653
71476096      15.1477042413378                     5      49.0665143454653
71476096     0.157466241337761                     5      33.0765143454653
71476096     0.157466241337761                     5      35.5365143454653
71476096     0.157466241337761                     5      37.9965143454653
71476096     0.157466241337761                     5      40.4565143454653
71476096     0.157466241337761                     5      42.9165143454653
71476096     0.157466241337761                     5      45.3765143454653
71476096     0.157466241337761                     5      47.8365143454653
71476096      16.5754602413378                     5      34.3065143454653