LAMMPS (30 Aug 2012)
units		metal
boundary	p p p
atom_style	atomic
read_data	struct.lammps
  orthogonal box = (0 0 0) to (17.1317 10 50)
  1 by 1 by 1 MPI processor grid
  300 atoms

pair_style      airebo 3.0
pair_coeff      * * CH.airebo C H

mass	1	12.0
mass	2	1.0

group		fixPosH id <> 1 120
120 atoms in group fixPosH
group		fixPosL id <> 121 239
119 atoms in group fixPosL
group		optPos  id <> 240 1000
61 atoms in group optPos
fix             0       fixPosH setforce NULL 0.0 NULL
fix             1       fixPosH aveforce 0.0 0.0 0.0
fix		2	fixPosL setforce 0.0 0.0 0.0
fix 		3	optPos	setforce NULL 0.0 NULL

neighbor        0.2 bin
neigh_modify	every 1 delay 0 check yes

timestep	0.002
thermo 		1
thermo_style    custom step  pe etotal lx ly lz 

dump		1 all xyz 10000000 dump.atom
dump_modify	1 format "%d  %20.15g  %20.15g  %20.15g" 
#fix 		8 all box/relax iso 0.0 
min_style	cg
minimize	1.0e-12 1.0e-12 10 10
Memory usage per processor = 3.2674 Mbytes
Step PotEng TotEng Lx Ly Lz 
       0    3439.8735    3439.8735      17.1317           10           50 
       1     1851.444     1851.444      17.1317           10           50 
       2    887.56715    887.56715      17.1317           10           50 
       3    186.53821    186.53821      17.1317           10           50 
       4   -328.06995   -328.06995      17.1317           10           50 
       5   -575.51389   -575.51389      17.1317           10           50 
       6   -780.97834   -780.97834      17.1317           10           50 
       7   -907.50351   -907.50351      17.1317           10           50 
       8   -972.81125   -972.81125      17.1317           10           50 
       9    -1016.738    -1016.738      17.1317           10           50 
      10   -1063.6589   -1063.6589      17.1317           10           50 
Loop time of 0.363296 on 1 procs for 10 steps with 300 atoms

Minimization stats:
  Stopping criterion = max force evaluations
  Energy initial, next-to-last, final = 
         3439.87352393     -1016.73795785     -1063.65894449
  Force two-norm initial, final = 14870.8 172.056
  Force max component initial, final = 8691.43 111.595
  Final line search alpha, max atom move = 0.00079911 0.0891766
  Iterations, force evaluations = 10 10

Pair  time (%) = 0.144034 (39.6465)
Neigh time (%) = 0.215798 (59.4001)
Comm  time (%) = 0.00144434 (0.397566)
Outpt time (%) = 0.0001297 (0.0357008)
Other time (%) = 0.00188971 (0.520156)

Nlocal:    300 ave 300 max 300 min
Histogram: 1 0 0 0 0 0 0 0 0 0
Nghost:    2364 ave 2364 max 2364 min
Histogram: 1 0 0 0 0 0 0 0 0 0
Neighs:    0 ave 0 max 0 min
Histogram: 1 0 0 0 0 0 0 0 0 0
FullNghs:  46940 ave 46940 max 46940 min
Histogram: 1 0 0 0 0 0 0 0 0 0

Total # of neighbors = 46940
Ave neighs/atom = 156.467
Neighbor list builds = 10
Dangerous builds = 10
min_modify line quadratic

clear
