search structure

300 atoms
2  atom types

0   17.131700 xlo xhi
0   10.000000 ylo yhi
0   50.000000 zlo zhi

Atoms

1 2 2.298916 5.000000 34.306500
2 2 2.298916 5.000000 36.766500
3 2 2.298916 5.000000 39.226500
4 2 2.298916 5.000000 41.686500
5 2 2.298916 5.000000 44.146500
6 2 2.298916 5.000000 46.606500
7 2 2.298916 5.000000 49.066500
8 2 4.440378 5.000000 33.076500
9 2 4.440378 5.000000 35.536500
10 2 4.440378 5.000000 37.996500
11 2 4.440378 5.000000 40.456500
12 2 4.440378 5.000000 42.916500
13 2 4.440378 5.000000 45.376500
14 2 4.440378 5.000000 47.836500
15 2 3.726672 5.000000 34.306500
16 2 3.726672 5.000000 36.766500
17 2 3.726672 5.000000 39.226500
18 2 3.726672 5.000000 41.686500
19 2 3.726672 5.000000 44.146500
20 2 3.726672 5.000000 46.606500
21 2 3.726672 5.000000 49.066500
22 2 5.868134 5.000000 33.076500
23 2 5.868134 5.000000 35.536500
24 2 5.868134 5.000000 37.996500
25 2 5.868134 5.000000 40.456500
26 2 5.868134 5.000000 42.916500
27 2 5.868134 5.000000 45.376500
28 2 5.868134 5.000000 47.836500
29 2 6.581841 5.000000 34.306500
30 2 6.581841 5.000000 36.766500
31 1 6.581841 5.000000 39.226500
32 1 6.581841 5.000000 41.686500
33 1 6.581841 5.000000 44.146500
34 1 6.581841 5.000000 46.606500
35 1 6.581841 5.000000 49.066500
36 1 8.723303 5.000000 33.076500
37 1 8.723303 5.000000 35.536500
38 1 8.723303 5.000000 37.996500
39 1 8.723303 5.000000 40.456500
40 1 8.723303 5.000000 42.916500
41 1 8.723303 5.000000 45.376500
42 1 8.723303 5.000000 47.836500
43 1 8.009597 5.000000 34.306500
44 1 8.009597 5.000000 36.766500
45 1 8.009597 5.000000 39.226500
46 1 8.009597 5.000000 41.686500
47 1 8.009597 5.000000 44.146500
48 1 8.009597 5.000000 46.606500
49 1 8.009597 5.000000 49.066500
50 1 10.151059 5.000000 33.076500
51 1 10.151059 5.000000 35.536500
52 1 10.151059 5.000000 37.996500
53 1 10.151059 5.000000 40.456500
54 1 10.151059 5.000000 42.916500
55 1 10.151059 5.000000 45.376500
56 1 10.151059 5.000000 47.836500
57 1 10.864766 5.000000 34.306500
58 1 10.864766 5.000000 36.766500
59 1 10.864766 5.000000 39.226500
60 1 10.864766 5.000000 41.686500
61 1 10.864766 5.000000 44.146500
62 1 10.864766 5.000000 46.606500
63 1 10.864766 5.000000 49.066500
64 1 13.006228 5.000000 33.076500
65 1 13.006228 5.000000 35.536500
66 1 13.006228 5.000000 37.996500
67 1 13.006228 5.000000 40.456500
68 1 13.006228 5.000000 42.916500
69 1 13.006228 5.000000 45.376500
70 1 13.006228 5.000000 47.836500
71 1 12.292522 5.000000 34.306500
72 1 12.292522 5.000000 36.766500
73 1 12.292522 5.000000 39.226500
74 1 12.292522 5.000000 41.686500
75 1 12.292522 5.000000 44.146500
76 1 12.292522 5.000000 46.606500
77 1 12.292522 5.000000 49.066500
78 1 14.433984 5.000000 33.076500
79 1 14.433984 5.000000 35.536500
80 1 14.433984 5.000000 37.996500
81 1 14.433984 5.000000 40.456500
82 1 14.433984 5.000000 42.916500
83 1 14.433984 5.000000 45.376500
84 1 14.433984 5.000000 47.836500
85 1 15.147691 5.000000 34.306500
86 1 15.147691 5.000000 36.766500
87 1 15.147691 5.000000 39.226500
88 1 15.147691 5.000000 41.686500
89 1 15.147691 5.000000 44.146500
90 1 15.147691 5.000000 46.606500
91 1 15.147691 5.000000 49.066500
92 1 0.157453 5.000000 33.076500
93 1 0.157453 5.000000 35.536500
94 1 0.157453 5.000000 37.996500
95 1 0.157453 5.000000 40.456500
96 1 0.157453 5.000000 42.916500
97 1 0.157453 5.000000 45.376500
98 1 0.157453 5.000000 47.836500
99 1 16.575447 5.000000 34.306500
100 1 16.575447 5.000000 36.766500
101 1 16.575447 5.000000 39.226500
102 1 16.575447 5.000000 41.686500
103 1 16.575447 5.000000 44.146500
104 1 16.575447 5.000000 46.606500
105 1 16.575447 5.000000 49.066500
106 1 1.585209 5.000000 33.076500
107 1 1.585209 5.000000 35.536500
108 1 1.585209 5.000000 37.996500
109 1 1.585209 5.000000 40.456500
110 1 1.585209 5.000000 42.916500
111 1 1.585209 5.000000 45.376500
112 1 1.585209 5.000000 47.836500
113 2 1.728773 5.000000 50.054000
114 2 4.296644 5.000000 50.054000
115 2 6.013925 5.000000 50.055000
116 2 8.579569 5.000000 50.054000
117 2 10.296850 5.000000 50.055000
118 2 12.862494 5.000000 50.054000
119 2 14.579775 5.000000 50.055000
120 2 0.013719 5.000000 50.054000
121 1 -0.039917 5.000000 8.565500
122 1 -0.039917 5.000000 12.826500
123 1 -0.039917 5.000000 17.087500
124 1 -0.039917 5.000000 21.348000
125 1 -0.039917 5.000000 9.986000
126 1 -0.039917 5.000000 14.246500
127 1 -0.039917 5.000000 18.507500
128 1 -0.039917 5.000000 22.768500
129 1 15.868066 5.000000 10.696000
130 1 15.868066 5.000000 14.957000
131 1 15.868066 5.000000 19.217500
132 1 15.868066 5.000000 23.478500
133 1 15.868066 5.000000 7.855500
134 1 15.868066 5.000000 12.116500
135 1 15.868066 5.000000 16.377000
136 1 15.868066 5.000000 20.638000
137 1 14.644348 5.000000 8.565500
138 1 14.644348 5.000000 12.826500
139 1 14.644348 5.000000 17.087500
140 1 14.644348 5.000000 21.348000
141 1 13.420631 5.000000 10.696000
142 1 13.420631 5.000000 14.957000
143 1 13.420631 5.000000 19.217500
144 1 13.420631 5.000000 23.478500
145 1 14.644348 5.000000 9.986000
146 1 14.644348 5.000000 14.246500
147 1 14.644348 5.000000 18.507500
148 1 14.644348 5.000000 22.768500
149 1 13.420631 5.000000 7.855500
150 1 13.420631 5.000000 12.116500
151 1 13.420631 5.000000 16.377000
152 1 13.420631 5.000000 20.638000
153 1 12.197085 5.000000 8.565500
154 1 12.197085 5.000000 12.826500
155 1 12.197085 5.000000 17.087500
156 1 12.197085 5.000000 21.348000
157 1 10.973368 5.000000 10.696000
158 1 10.973368 5.000000 14.957000
159 1 10.973368 5.000000 19.217500
160 1 10.973368 5.000000 23.478500
161 1 12.197085 5.000000 9.986000
162 1 12.197085 5.000000 14.246500
163 1 12.197085 5.000000 18.507500
164 1 12.197085 5.000000 22.768500
165 1 10.973368 5.000000 7.855500
166 1 10.973368 5.000000 12.116500
167 1 10.973368 5.000000 16.377000
168 1 10.973368 5.000000 20.638000
169 1 9.749650 5.000000 8.565500
170 1 9.749650 5.000000 12.826500
171 1 9.749650 5.000000 17.087500
172 1 9.749650 5.000000 21.348000
173 1 8.525933 5.000000 10.696000
174 1 8.525933 5.000000 14.957000
175 1 8.525933 5.000000 19.217500
176 1 8.525933 5.000000 23.478500
177 1 9.749650 5.000000 9.986000
178 1 9.749650 5.000000 14.246500
179 1 9.749650 5.000000 18.507500
180 1 9.749650 5.000000 22.768500
181 1 8.525933 5.000000 7.855500
182 1 8.525933 5.000000 12.116500
183 1 8.525933 5.000000 16.377000
184 1 8.525933 5.000000 20.638000
185 1 7.302216 5.000000 8.565500
186 1 7.302216 5.000000 12.826500
187 1 7.302216 5.000000 17.087500
188 1 7.302216 5.000000 21.348000
189 1 6.078498 5.000000 10.696000
190 1 6.078498 5.000000 14.957000
191 1 6.078498 5.000000 19.217500
192 1 6.078498 5.000000 23.478500
193 1 7.302216 5.000000 9.986000
194 1 7.302216 5.000000 14.246500
195 1 7.302216 5.000000 18.507500
196 1 7.302216 5.000000 22.768500
197 1 6.078498 5.000000 7.855500
198 1 6.078498 5.000000 12.116500
199 1 6.078498 5.000000 16.377000
200 1 6.078498 5.000000 20.638000
201 1 4.854781 5.000000 8.565500
202 1 4.854781 5.000000 12.826500
203 1 4.854781 5.000000 17.087500
204 1 4.854781 5.000000 21.348000
205 1 3.631235 5.000000 10.696000
206 1 3.631235 5.000000 14.957000
207 1 3.631235 5.000000 19.217500
208 1 3.631235 5.000000 23.478500
209 1 4.854781 5.000000 9.986000
210 1 4.854781 5.000000 14.246500
211 1 4.854781 5.000000 18.507500
212 1 4.854781 5.000000 22.768500
213 1 3.631235 5.000000 7.855500
214 1 3.631235 5.000000 12.116500
215 1 3.631235 5.000000 16.377000
216 1 3.631235 5.000000 20.638000
217 1 2.407518 5.000000 8.565500
218 1 2.407518 5.000000 12.826500
219 1 2.407518 5.000000 17.087500
220 1 2.407518 5.000000 21.348000
221 1 1.183800 5.000000 10.696000
222 1 1.183800 5.000000 14.957000
223 1 1.183800 5.000000 19.217500
224 1 1.183800 5.000000 23.478500
225 1 2.407518 5.000000 9.986000
226 1 2.407518 5.000000 14.246500
227 1 2.407518 5.000000 18.507500
228 1 2.407518 5.000000 22.768500
229 1 1.183800 5.000000 7.855500
230 1 1.183800 5.000000 12.116500
231 1 1.183800 5.000000 16.377000
232 1 1.183800 5.000000 20.638000
233 2 15.865667 5.000000 6.715500
234 2 13.423030 5.000000 6.715500
235 2 10.975766 5.000000 6.715500
236 2 8.528332 5.000000 6.715500
237 2 6.080897 5.000000 6.715500
238 2 3.633634 5.000000 6.715500
239 2 1.181402 5.000000 6.715500
240 2 7.557997 9.153308 23.500000
241 2 12.777300 2.944160 23.826130
242 2 12.963502 6.189000 23.500000
243 2 2.277349 6.784181 24.242544
244 2 1.844158 1.442801 23.500000
245 2 14.184797 2.569133 23.500000
246 2 0.141215 6.338837 23.500000
247 2 13.740263 8.784674 24.853060
248 2 16.427096 1.360725 25.430658
249 2 4.657128 7.282422 25.493541
250 2 4.374939 0.380596 27.811254
251 2 9.959697 9.606396 26.651274
252 2 5.082477 4.181068 24.853515
253 2 8.299430 0.230438 25.095481
254 2 11.300475 2.986166 25.019440
255 2 5.221836 3.586235 25.738771
256 2 8.219254 2.683411 25.392869
257 2 0.950380 6.311280 27.068612
258 2 8.500058 1.486363 30.290435
259 2 14.825394 7.336485 30.717366
260 2 6.532995 6.749199 26.556844
261 2 0.018510 6.952778 33.000000
262 2 4.941145 8.543042 28.983257
263 2 6.249704 6.505595 29.466753
264 2 9.780604 6.717131 29.371236
265 2 9.630605 5.590853 29.653684
266 2 0.181189 7.202839 31.961163
267 2 14.642212 9.251719 27.143925
268 1 16.434926 4.614468 24.038795
269 1 4.872189 9.401756 25.231241
270 1 3.583220 6.858340 26.963499
271 1 10.961409 1.359751 27.460543
272 1 5.389255 1.603037 23.500000
273 1 8.851851 3.053787 26.121910
274 1 10.071743 6.172498 25.096477
275 1 9.615884 8.397567 25.048966
276 1 0.578635 6.947672 24.357493
277 1 11.865728 0.178417 24.828141
278 1 0.109998 9.046295 25.037459
279 1 1.894550 8.038514 27.721006
280 1 3.239684 0.214858 25.491287
281 1 4.424373 8.769840 25.444759
282 1 0.482886 1.859728 29.019156
283 1 1.054950 5.286148 23.500000
284 1 13.095204 7.587685 26.393596
285 1 15.317834 1.044648 29.333705
286 1 7.681873 5.059028 26.065504
287 1 7.131414 7.152152 25.313561
288 1 16.867096 9.201885 24.449101
289 1 7.957263 0.545018 31.084231
290 1 15.958309 1.875123 33.000000
291 1 4.765601 0.381683 30.966333
292 1 12.182784 1.611931 30.326523
293 1 5.516613 0.100955 31.868459
294 1 12.341266 9.618110 27.934102
295 1 15.914537 2.696874 32.601952
296 1 15.115621 8.959693 31.033999
297 1 10.253269 9.268732 28.835700
298 1 11.191573 1.498731 33.000000
299 1 13.118781 2.070729 31.895595
300 1 15.695030 1.612625 33.000000
