300
Atoms. Timestep: 0
145204128              1.872217                     5              35.32681
145204128              1.872217                     5              37.78681
145204128              1.872217                     5              40.24681
145204128              1.872217                     5              42.70681
145204128              1.872217                     5              45.16681
145204128              1.872217                     5              47.62681
145204128              1.872217                     5    0.0868099999999998
145204128              4.013679                     5              34.09681
145204128              4.013679                     5              36.55681
145204128              4.013679                     5              39.01681
145204128              4.013679                     5              41.47681
145204128              4.013679                     5              43.93681
145204128              4.013679                     5              46.39681
145204128              4.013679                     5              48.85681
145204128              3.299973                     5              35.32681
145204128              3.299973                     5              37.78681
145204128              3.299973                     5              40.24681
145204128              3.299973                     5              42.70681
145204128              3.299973                     5              45.16681
145204128              3.299973                     5              47.62681
145204128              3.299973                     5    0.0868099999999998
145204128              5.441435                     5              34.09681
145204128              5.441435                     5              36.55681
145204128              5.441435                     5              39.01681
145204128              5.441435                     5              41.47681
145204128              5.441435                     5              43.93681
145204128              5.441435                     5              46.39681
145204128              5.441435                     5              48.85681
145204128              6.155142                     5              35.32681
145204128              6.155142                     5              37.78681
145204096              6.155142                     5              40.24681
145204096              6.155142                     5              42.70681
145204096              6.155142                     5              45.16681
145204096              6.155142                     5              47.62681
145204096              6.155142                     5    0.0868099999999998
145204096              8.296604                     5              34.09681
145204096              8.296604                     5              36.55681
145204096              8.296604                     5              39.01681
145204096              8.296604                     5              41.47681
145204096              8.296604                     5              43.93681
145204096              8.296604                     5              46.39681
145204096              8.296604                     5              48.85681
145204096              7.582898                     5              35.32681
145204096              7.582898                     5              37.78681
145204096              7.582898                     5              40.24681
145204096              7.582898                     5              42.70681
145204096              7.582898                     5              45.16681
145204096              7.582898                     5              47.62681
145204096              7.582898                     5    0.0868099999999998
145204096               9.72436                     5              34.09681
145204096               9.72436                     5              36.55681
145204096               9.72436                     5              39.01681
145204096               9.72436                     5              41.47681
145204096               9.72436                     5              43.93681
145204096               9.72436                     5              46.39681
145204096               9.72436                     5              48.85681
145204096             10.438067                     5              35.32681
145204096             10.438067                     5              37.78681
145204096             10.438067                     5              40.24681
145204096             10.438067                     5              42.70681
145204096             10.438067                     5              45.16681
145204096             10.438067                     5              47.62681
145204096             10.438067                     5    0.0868099999999998
145204096             12.579529                     5              34.09681
145204096             12.579529                     5              36.55681
145204096             12.579529                     5              39.01681
145204096             12.579529                     5              41.47681
145204096             12.579529                     5              43.93681
145204096             12.579529                     5              46.39681
145204096             12.579529                     5              48.85681
145204096             11.865823                     5              35.32681
145204096             11.865823                     5              37.78681
145204096             11.865823                     5              40.24681
145204096             11.865823                     5              42.70681
145204096             11.865823                     5              45.16681
145204096             11.865823                     5              47.62681
145204096             11.865823                     5    0.0868099999999998
145204096             14.007285                     5              34.09681
145204096             14.007285                     5              36.55681
145204096             14.007285                     5              39.01681
145204096             14.007285                     5              41.47681
145204096             14.007285                     5              43.93681
145204096             14.007285                     5              46.39681
145204096             14.007285                     5              48.85681
145204096             14.720992                     5              35.32681
145204096             14.720992                     5              37.78681
145204096             14.720992                     5              40.24681
145204096             14.720992                     5              42.70681
145204096             14.720992                     5              45.16681
145204096             14.720992                     5              47.62681
145204096             14.720992                     5    0.0868099999999998
145204096             16.862454                     5              34.09681
145204096             16.862454                     5              36.55681
145204096             16.862454                     5              39.01681
145204096             16.862454                     5              41.47681
145204096             16.862454                     5              43.93681
145204096             16.862454                     5              46.39681
145204096             16.862454                     5              48.85681
145204096             16.148748                     5              35.32681
145204096             16.148748                     5              37.78681
145204096             16.148748                     5              40.24681
145204096             16.148748                     5              42.70681
145204096             16.148748                     5              45.16681
145204096             16.148748                     5              47.62681
145204096             16.148748                     5    0.0868099999999998
145204096               1.15851                     5              34.09681
145204096               1.15851                     5              36.55681
145204096               1.15851                     5              39.01681
145204096               1.15851                     5              41.47681
145204096               1.15851                     5              43.93681
145204096               1.15851                     5              46.39681
145204096               1.15851                     5              48.85681
145204128              1.302074                     5               1.07431
145204128              3.869944                     5               1.07431
145204128              5.587226                     5               1.07531
145204128              8.152869                     5               1.07431
145204128              9.870151                     5               1.07531
145204128             12.435794                     5               1.07431
145204128             14.153076                     5               1.07531
145204128             16.718719                     5               1.07431
145204096             17.091783                     5                8.5655
145204096             17.091783                     5               12.8265
145204096             17.091783                     5               17.0875
145204096             17.091783                     5                21.348
145204096             17.091783                     5                 9.986
145204096             17.091783                     5               14.2465
145204096             17.091783                     5               18.5075
145204096             17.091783                     5               22.7685
145204096             15.868066                     5                10.696
145204096             15.868066                     5                14.957
145204096             15.868066                     5               19.2175
145204096             15.868066                     5               23.4785
145204096             15.868066                     5                7.8555
145204096             15.868066                     5               12.1165
145204096             15.868066                     5                16.377
145204096             15.868066                     5                20.638
145204096             14.644348                     5                8.5655
145204096             14.644348                     5               12.8265
145204096             14.644348                     5               17.0875
145204096             14.644348                     5                21.348
145204096             13.420631                     5                10.696
145204096             13.420631                     5                14.957
145204096             13.420631                     5               19.2175
145204096             13.420631                     5               23.4785
145204096             14.644348                     5                 9.986
145204096             14.644348                     5               14.2465
145204096             14.644348                     5               18.5075
145204096             14.644348                     5               22.7685
145204096             13.420631                     5                7.8555
145204096             13.420631                     5               12.1165
145204096             13.420631                     5                16.377
145204096             13.420631                     5                20.638
145204096             12.197085                     5                8.5655
145204096             12.197085                     5               12.8265
145204096             12.197085                     5               17.0875
145204096             12.197085                     5                21.348
145204096             10.973368                     5                10.696
145204096             10.973368                     5                14.957
145204096             10.973368                     5               19.2175
145204096             10.973368                     5               23.4785
145204096             12.197085                     5                 9.986
145204096             12.197085                     5               14.2465
145204096             12.197085                     5               18.5075
145204096             12.197085                     5               22.7685
145204096             10.973368                     5                7.8555
145204096             10.973368                     5               12.1165
145204096             10.973368                     5                16.377
145204096             10.973368                     5                20.638
145204096               9.74965                     5                8.5655
145204096               9.74965                     5               12.8265
145204096               9.74965                     5               17.0875
145204096               9.74965                     5                21.348
145204096              8.525933                     5                10.696
145204096              8.525933                     5                14.957
145204096              8.525933                     5               19.2175
145204096              8.525933                     5               23.4785
145204096               9.74965                     5                 9.986
145204096               9.74965                     5               14.2465
145204096               9.74965                     5               18.5075
145204096               9.74965                     5               22.7685
145204096              8.525933                     5                7.8555
145204096              8.525933                     5               12.1165
145204096              8.525933                     5                16.377
145204096              8.525933                     5                20.638
145204096              7.302216                     5                8.5655
145204096              7.302216                     5               12.8265
145204096              7.302216                     5               17.0875
145204096              7.302216                     5                21.348
145204096              6.078498                     5                10.696
145204096              6.078498                     5                14.957
145204096              6.078498                     5               19.2175
145204096              6.078498                     5               23.4785
145204096              7.302216                     5                 9.986
145204096              7.302216                     5               14.2465
145204096              7.302216                     5               18.5075
145204096              7.302216                     5               22.7685
145204096              6.078498                     5                7.8555
145204096              6.078498                     5               12.1165
145204096              6.078498                     5                16.377
145204096              6.078498                     5                20.638
145204096              4.854781                     5                8.5655
145204096              4.854781                     5               12.8265
145204096              4.854781                     5               17.0875
145204096              4.854781                     5                21.348
145204096              3.631235                     5                10.696
145204096              3.631235                     5                14.957
145204096              3.631235                     5               19.2175
145204096              3.631235                     5               23.4785
145204096              4.854781                     5                 9.986
145204096              4.854781                     5               14.2465
145204096              4.854781                     5               18.5075
145204096              4.854781                     5               22.7685
145204096              3.631235                     5                7.8555
145204096              3.631235                     5               12.1165
145204096              3.631235                     5                16.377
145204096              3.631235                     5                20.638
145204096              2.407518                     5                8.5655
145204096              2.407518                     5               12.8265
145204096              2.407518                     5               17.0875
145204096              2.407518                     5                21.348
145204096                1.1838                     5                10.696
145204096                1.1838                     5                14.957
145204096                1.1838                     5               19.2175
145204096                1.1838                     5               23.4785
145204096              2.407518                     5                 9.986
145204096              2.407518                     5               14.2465
145204096              2.407518                     5               18.5075
145204096              2.407518                     5               22.7685
145204096                1.1838                     5                7.8555
145204096                1.1838                     5               12.1165
145204096                1.1838                     5                16.377
145204096                1.1838                     5                20.638
145204128             15.865667                     5                6.7155
145204128              13.42303                     5                6.7155
145204128             10.975766                     5                6.7155
145204128              8.528332                     5                6.7155
145204128              6.080897                     5                6.7155
145204128              3.633634                     5                6.7155
145204128              1.181402                     5                6.7155
145204128              8.436838              1.056069              23.91759
145204128              9.152763              2.175213             24.201532
145204128              6.430178              9.450995             26.481232
145204128             11.221744              9.794561             24.259624
145204128             13.002544              0.836619             26.485494
145204128             15.041357              1.289945             23.907691
145204128             12.047325              3.097138             24.550391
145204128             16.585451              5.789632             24.220683
145204128             13.352536              7.403691             24.724402
145204128              2.436469              0.124273             27.865375
145204128              6.293236               4.25124             29.216894
145204128              0.713735              5.117674             28.832162
145204128              2.326607               8.94981             26.754669
145204128              6.533282              4.155806              28.27657
145204128             15.812367              5.680626             29.520902
145204128             12.662755              6.281122             26.959231
145204128              9.879561               6.95612             28.818513
145204128              9.984153              9.422181             28.499063
145204128              4.709443               1.19822              33.94749
145204128              2.264104              4.412593             32.935428
145204128              1.860891              5.301677             30.888554
145204128              5.271228              6.292589             32.269697
145204128              8.919898              6.672789             32.852424
145204128              9.841461              3.029464             31.452773
145204128              9.587279              5.021662             30.851824
145204128             10.219671              6.566853             30.345147
145204128             12.552369              6.654675             32.613179
145204128             12.940569              9.310614                 29.58
145204096              9.093775              1.279531             24.202194
145204096              4.404405              5.270584             25.764271
145204096              5.646513              7.330503             25.234393
145204096              1.613574               8.94447             26.037297
145204096              5.746866              9.047239             25.053218
145204096             12.423539              0.911128             25.348254
145204096               9.52213              1.001184             24.711006
145204096             11.185139              5.420766               24.8669
145204096             11.328136              6.065201             25.677459
145204096             12.044188              8.479106             24.173205
145204096             14.899517              9.053071             25.131483
145204096              0.373976               0.00504             29.134289
145204096              1.502768              0.561048              29.99974
145204096              4.601682              2.027327             26.497878
145204096              0.118855              6.347615             29.565654
145204096              1.758084               7.82456             27.906162
145204096              6.697788              3.194923             27.602451
145204096              8.083809              3.625115             28.844656
145204096             12.504597              4.410631             26.142782
145204096             17.055906              5.653484             30.254212
145204096              9.738532              6.636082             27.652364
145204096             10.137069              7.992207             28.786569
145204096              3.534169              0.315331             33.760456
145204096              4.993697              0.551977             32.101472
145204096              6.030223              1.416086             33.285512
145204096              2.679389              9.275967             31.768836
145204096               4.68187               9.60456             31.166239
145204096              14.86158              0.275832             33.841271
145204096             14.198687              2.508094             30.703643
145204096              16.83255              2.748723             30.647072
145204096             11.290187              5.654194             33.009364
145204096             13.680811              7.868964             31.677539
145204096               6.55394              8.453015             33.545078
300
Atoms. Timestep: 8
145204128      1.87113219809009                     5      35.3259613741258
145204128      1.87113219809009                     5      37.7859613741258
145204128      1.87113219809009                     5      40.2459613741258
145204128      1.87113219809009                     5      42.7059613741258
145204128      1.87113219809009                     5      45.1659613741258
145204128      1.87113219809009                     5      47.6259613741258
145204128      1.87113219809009                     5    0.0859613741258255
145204128      4.01259419809009                     5      34.0959613741258
145204128      4.01259419809009                     5      36.5559613741258
145204128      4.01259419809009                     5      39.0159613741258
145204128      4.01259419809009                     5      41.4759613741258
145204128      4.01259419809009                     5      43.9359613741258
145204128      4.01259419809009                     5      46.3959613741258
145204128      4.01259419809009                     5      48.8559613741258
145204128      3.29888819809009                     5      35.3259613741258
145204128      3.29888819809009                     5      37.7859613741258
145204128      3.29888819809009                     5      40.2459613741258
145204128      3.29888819809009                     5      42.7059613741258
145204128      3.29888819809009                     5      45.1659613741258
145204128      3.29888819809009                     5      47.6259613741258
145204128      3.29888819809009                     5    0.0859613741258255
145204128      5.44035019809009                     5      34.0959613741258
145204128      5.44035019809009                     5      36.5559613741258
145204128      5.44035019809009                     5      39.0159613741258
145204128      5.44035019809009                     5      41.4759613741258
145204128      5.44035019809009                     5      43.9359613741258
145204128      5.44035019809009                     5      46.3959613741258
145204128      5.44035019809009                     5      48.8559613741258
145204128      6.15405719809009                     5      35.3259613741258
145204128      6.15405719809009                     5      37.7859613741258
145204096      6.15405719809009                     5      40.2459613741258
145204096      6.15405719809009                     5      42.7059613741258
145204096      6.15405719809009                     5      45.1659613741258
145204096      6.15405719809009                     5      47.6259613741258
145204096      6.15405719809009                     5    0.0859613741258255
145204096      8.29551919809009                     5      34.0959613741258
145204096      8.29551919809009                     5      36.5559613741258
145204096      8.29551919809009                     5      39.0159613741258
145204096      8.29551919809009                     5      41.4759613741258
145204096      8.29551919809009                     5      43.9359613741258
145204096      8.29551919809009                     5      46.3959613741258
145204096      8.29551919809009                     5      48.8559613741258
145204096      7.58181319809009                     5      35.3259613741258
145204096      7.58181319809009                     5      37.7859613741258
145204096      7.58181319809009                     5      40.2459613741258
145204096      7.58181319809009                     5      42.7059613741258
145204096      7.58181319809009                     5      45.1659613741258
145204096      7.58181319809009                     5      47.6259613741258
145204096      7.58181319809009                     5    0.0859613741258255
145204096      9.72327519809009                     5      34.0959613741258
145204096      9.72327519809009                     5      36.5559613741258
145204096      9.72327519809009                     5      39.0159613741258
145204096      9.72327519809009                     5      41.4759613741258
145204096      9.72327519809009                     5      43.9359613741258
145204096      9.72327519809009                     5      46.3959613741258
145204096      9.72327519809009                     5      48.8559613741258
145204096      10.4369821980901                     5      35.3259613741258
145204096      10.4369821980901                     5      37.7859613741258
145204096      10.4369821980901                     5      40.2459613741258
145204096      10.4369821980901                     5      42.7059613741258
145204096      10.4369821980901                     5      45.1659613741258
145204096      10.4369821980901                     5      47.6259613741258
145204096      10.4369821980901                     5    0.0859613741258255
145204096      12.5784441980901                     5      34.0959613741258
145204096      12.5784441980901                     5      36.5559613741258
145204096      12.5784441980901                     5      39.0159613741258
145204096      12.5784441980901                     5      41.4759613741258
145204096      12.5784441980901                     5      43.9359613741258
145204096      12.5784441980901                     5      46.3959613741258
145204096      12.5784441980901                     5      48.8559613741258
145204096      11.8647381980901                     5      35.3259613741258
145204096      11.8647381980901                     5      37.7859613741258
145204096      11.8647381980901                     5      40.2459613741258
145204096      11.8647381980901                     5      42.7059613741258
145204096      11.8647381980901                     5      45.1659613741258
145204096      11.8647381980901                     5      47.6259613741258
145204096      11.8647381980901                     5    0.0859613741258255
145204096      14.0062001980901                     5      34.0959613741258
145204096      14.0062001980901                     5      36.5559613741258
145204096      14.0062001980901                     5      39.0159613741258
145204096      14.0062001980901                     5      41.4759613741258
145204096      14.0062001980901                     5      43.9359613741258
145204096      14.0062001980901                     5      46.3959613741258
145204096      14.0062001980901                     5      48.8559613741258
145204096      14.7199071980901                     5      35.3259613741258
145204096      14.7199071980901                     5      37.7859613741258
145204096      14.7199071980901                     5      40.2459613741258
145204096      14.7199071980901                     5      42.7059613741258
145204096      14.7199071980901                     5      45.1659613741258
145204096      14.7199071980901                     5      47.6259613741258
145204096      14.7199071980901                     5    0.0859613741258255
145204096      16.8613691980901                     5      34.0959613741258
145204096      16.8613691980901                     5      36.5559613741258
145204096      16.8613691980901                     5      39.0159613741258