search structure

300 atoms
2  atom types

0   17.131700 xlo xhi
0   10.000000 ylo yhi
0   50.000000 zlo zhi

Atoms

1 2 1.872217 5.000000 35.326810
2 2 1.872217 5.000000 37.786810
3 2 1.872217 5.000000 40.246810
4 2 1.872217 5.000000 42.706810
5 2 1.872217 5.000000 45.166810
6 2 1.872217 5.000000 47.626810
7 2 1.872217 5.000000 50.086810
8 2 4.013679 5.000000 34.096810
9 2 4.013679 5.000000 36.556810
10 2 4.013679 5.000000 39.016810
11 2 4.013679 5.000000 41.476810
12 2 4.013679 5.000000 43.936810
13 2 4.013679 5.000000 46.396810
14 2 4.013679 5.000000 48.856810
15 2 3.299973 5.000000 35.326810
16 2 3.299973 5.000000 37.786810
17 2 3.299973 5.000000 40.246810
18 2 3.299973 5.000000 42.706810
19 2 3.299973 5.000000 45.166810
20 2 3.299973 5.000000 47.626810
21 2 3.299973 5.000000 50.086810
22 2 5.441435 5.000000 34.096810
23 2 5.441435 5.000000 36.556810
24 2 5.441435 5.000000 39.016810
25 2 5.441435 5.000000 41.476810
26 2 5.441435 5.000000 43.936810
27 2 5.441435 5.000000 46.396810
28 2 5.441435 5.000000 48.856810
29 2 6.155142 5.000000 35.326810
30 2 6.155142 5.000000 37.786810
31 1 6.155142 5.000000 40.246810
32 1 6.155142 5.000000 42.706810
33 1 6.155142 5.000000 45.166810
34 1 6.155142 5.000000 47.626810
35 1 6.155142 5.000000 50.086810
36 1 8.296604 5.000000 34.096810
37 1 8.296604 5.000000 36.556810
38 1 8.296604 5.000000 39.016810
39 1 8.296604 5.000000 41.476810
40 1 8.296604 5.000000 43.936810
41 1 8.296604 5.000000 46.396810
42 1 8.296604 5.000000 48.856810
43 1 7.582898 5.000000 35.326810
44 1 7.582898 5.000000 37.786810
45 1 7.582898 5.000000 40.246810
46 1 7.582898 5.000000 42.706810
47 1 7.582898 5.000000 45.166810
48 1 7.582898 5.000000 47.626810
49 1 7.582898 5.000000 50.086810
50 1 9.724360 5.000000 34.096810
51 1 9.724360 5.000000 36.556810
52 1 9.724360 5.000000 39.016810
53 1 9.724360 5.000000 41.476810
54 1 9.724360 5.000000 43.936810
55 1 9.724360 5.000000 46.396810
56 1 9.724360 5.000000 48.856810
57 1 10.438067 5.000000 35.326810
58 1 10.438067 5.000000 37.786810
59 1 10.438067 5.000000 40.246810
60 1 10.438067 5.000000 42.706810
61 1 10.438067 5.000000 45.166810
62 1 10.438067 5.000000 47.626810
63 1 10.438067 5.000000 50.086810
64 1 12.579529 5.000000 34.096810
65 1 12.579529 5.000000 36.556810
66 1 12.579529 5.000000 39.016810
67 1 12.579529 5.000000 41.476810
68 1 12.579529 5.000000 43.936810
69 1 12.579529 5.000000 46.396810
70 1 12.579529 5.000000 48.856810
71 1 11.865823 5.000000 35.326810
72 1 11.865823 5.000000 37.786810
73 1 11.865823 5.000000 40.246810
74 1 11.865823 5.000000 42.706810
75 1 11.865823 5.000000 45.166810
76 1 11.865823 5.000000 47.626810
77 1 11.865823 5.000000 50.086810
78 1 14.007285 5.000000 34.096810
79 1 14.007285 5.000000 36.556810
80 1 14.007285 5.000000 39.016810
81 1 14.007285 5.000000 41.476810
82 1 14.007285 5.000000 43.936810
83 1 14.007285 5.000000 46.396810
84 1 14.007285 5.000000 48.856810
85 1 14.720992 5.000000 35.326810
86 1 14.720992 5.000000 37.786810
87 1 14.720992 5.000000 40.246810
88 1 14.720992 5.000000 42.706810
89 1 14.720992 5.000000 45.166810
90 1 14.720992 5.000000 47.626810
91 1 14.720992 5.000000 50.086810
92 1 16.862454 5.000000 34.096810
93 1 16.862454 5.000000 36.556810
94 1 16.862454 5.000000 39.016810
95 1 16.862454 5.000000 41.476810
96 1 16.862454 5.000000 43.936810
97 1 16.862454 5.000000 46.396810
98 1 16.862454 5.000000 48.856810
99 1 16.148748 5.000000 35.326810
100 1 16.148748 5.000000 37.786810
101 1 16.148748 5.000000 40.246810
102 1 16.148748 5.000000 42.706810
103 1 16.148748 5.000000 45.166810
104 1 16.148748 5.000000 47.626810
105 1 16.148748 5.000000 50.086810
106 1 1.158510 5.000000 34.096810
107 1 1.158510 5.000000 36.556810
108 1 1.158510 5.000000 39.016810
109 1 1.158510 5.000000 41.476810
110 1 1.158510 5.000000 43.936810
111 1 1.158510 5.000000 46.396810
112 1 1.158510 5.000000 48.856810
113 2 1.302074 5.000000 51.074310
114 2 3.869944 5.000000 51.074310
115 2 5.587226 5.000000 51.075310
116 2 8.152869 5.000000 51.074310
117 2 9.870151 5.000000 51.075310
118 2 12.435794 5.000000 51.074310
119 2 14.153076 5.000000 51.075310
120 2 16.718719 5.000000 51.074310
121 1 -0.039917 5.000000 8.565500
122 1 -0.039917 5.000000 12.826500
123 1 -0.039917 5.000000 17.087500
124 1 -0.039917 5.000000 21.348000
125 1 -0.039917 5.000000 9.986000
126 1 -0.039917 5.000000 14.246500
127 1 -0.039917 5.000000 18.507500
128 1 -0.039917 5.000000 22.768500
129 1 15.868066 5.000000 10.696000
130 1 15.868066 5.000000 14.957000
131 1 15.868066 5.000000 19.217500
132 1 15.868066 5.000000 23.478500
133 1 15.868066 5.000000 7.855500
134 1 15.868066 5.000000 12.116500
135 1 15.868066 5.000000 16.377000
136 1 15.868066 5.000000 20.638000
137 1 14.644348 5.000000 8.565500
138 1 14.644348 5.000000 12.826500
139 1 14.644348 5.000000 17.087500
140 1 14.644348 5.000000 21.348000
141 1 13.420631 5.000000 10.696000
142 1 13.420631 5.000000 14.957000
143 1 13.420631 5.000000 19.217500
144 1 13.420631 5.000000 23.478500
145 1 14.644348 5.000000 9.986000
146 1 14.644348 5.000000 14.246500
147 1 14.644348 5.000000 18.507500
148 1 14.644348 5.000000 22.768500
149 1 13.420631 5.000000 7.855500
150 1 13.420631 5.000000 12.116500
151 1 13.420631 5.000000 16.377000
152 1 13.420631 5.000000 20.638000
153 1 12.197085 5.000000 8.565500
154 1 12.197085 5.000000 12.826500
155 1 12.197085 5.000000 17.087500
156 1 12.197085 5.000000 21.348000
157 1 10.973368 5.000000 10.696000
158 1 10.973368 5.000000 14.957000
159 1 10.973368 5.000000 19.217500
160 1 10.973368 5.000000 23.478500
161 1 12.197085 5.000000 9.986000
162 1 12.197085 5.000000 14.246500
163 1 12.197085 5.000000 18.507500
164 1 12.197085 5.000000 22.768500
165 1 10.973368 5.000000 7.855500
166 1 10.973368 5.000000 12.116500
167 1 10.973368 5.000000 16.377000
168 1 10.973368 5.000000 20.638000
169 1 9.749650 5.000000 8.565500
170 1 9.749650 5.000000 12.826500
171 1 9.749650 5.000000 17.087500
172 1 9.749650 5.000000 21.348000
173 1 8.525933 5.000000 10.696000
174 1 8.525933 5.000000 14.957000
175 1 8.525933 5.000000 19.217500
176 1 8.525933 5.000000 23.478500
177 1 9.749650 5.000000 9.986000
178 1 9.749650 5.000000 14.246500
179 1 9.749650 5.000000 18.507500
180 1 9.749650 5.000000 22.768500
181 1 8.525933 5.000000 7.855500
182 1 8.525933 5.000000 12.116500
183 1 8.525933 5.000000 16.377000
184 1 8.525933 5.000000 20.638000
185 1 7.302216 5.000000 8.565500
186 1 7.302216 5.000000 12.826500
187 1 7.302216 5.000000 17.087500
188 1 7.302216 5.000000 21.348000
189 1 6.078498 5.000000 10.696000
190 1 6.078498 5.000000 14.957000
191 1 6.078498 5.000000 19.217500
192 1 6.078498 5.000000 23.478500
193 1 7.302216 5.000000 9.986000
194 1 7.302216 5.000000 14.246500
195 1 7.302216 5.000000 18.507500
196 1 7.302216 5.000000 22.768500
197 1 6.078498 5.000000 7.855500
198 1 6.078498 5.000000 12.116500
199 1 6.078498 5.000000 16.377000
200 1 6.078498 5.000000 20.638000
201 1 4.854781 5.000000 8.565500
202 1 4.854781 5.000000 12.826500
203 1 4.854781 5.000000 17.087500
204 1 4.854781 5.000000 21.348000
205 1 3.631235 5.000000 10.696000
206 1 3.631235 5.000000 14.957000
207 1 3.631235 5.000000 19.217500
208 1 3.631235 5.000000 23.478500
209 1 4.854781 5.000000 9.986000
210 1 4.854781 5.000000 14.246500
211 1 4.854781 5.000000 18.507500
212 1 4.854781 5.000000 22.768500
213 1 3.631235 5.000000 7.855500
214 1 3.631235 5.000000 12.116500
215 1 3.631235 5.000000 16.377000
216 1 3.631235 5.000000 20.638000
217 1 2.407518 5.000000 8.565500
218 1 2.407518 5.000000 12.826500
219 1 2.407518 5.000000 17.087500
220 1 2.407518 5.000000 21.348000
221 1 1.183800 5.000000 10.696000
222 1 1.183800 5.000000 14.957000
223 1 1.183800 5.000000 19.217500
224 1 1.183800 5.000000 23.478500
225 1 2.407518 5.000000 9.986000
226 1 2.407518 5.000000 14.246500
227 1 2.407518 5.000000 18.507500
228 1 2.407518 5.000000 22.768500
229 1 1.183800 5.000000 7.855500
230 1 1.183800 5.000000 12.116500
231 1 1.183800 5.000000 16.377000
232 1 1.183800 5.000000 20.638000
233 2 15.865667 5.000000 6.715500
234 2 13.423030 5.000000 6.715500
235 2 10.975766 5.000000 6.715500
236 2 8.528332 5.000000 6.715500
237 2 6.080897 5.000000 6.715500
238 2 3.633634 5.000000 6.715500
239 2 1.181402 5.000000 6.715500
240 2 8.436838 1.056069 23.917590
241 2 9.152763 2.175213 24.201532
242 2 6.430178 9.450995 26.481232
243 2 11.221744 9.794561 24.259624
244 2 13.002544 0.836619 26.485494
245 2 15.041357 1.289945 23.907691
246 2 12.047325 3.097138 24.550391
247 2 16.585451 5.789632 24.220683
248 2 13.352536 7.403691 24.724402
249 2 2.436469 0.124273 27.865375
250 2 6.293236 4.251240 29.216894
251 2 0.713735 5.117674 28.832162
252 2 2.326607 8.949810 26.754669
253 2 6.533282 4.155806 28.276570
254 2 15.812367 5.680626 29.520902
255 2 12.662755 6.281122 26.959231
256 2 9.879561 6.956120 28.818513
257 2 9.984153 9.422181 28.499063
258 2 4.709443 1.198220 33.947490
259 2 2.264104 4.412593 32.935428
260 2 1.860891 5.301677 30.888554
261 2 5.271228 6.292589 32.269697
262 2 8.919898 6.672789 32.852424
263 2 9.841461 3.029464 31.452773
264 2 9.587279 5.021662 30.851824
265 2 10.219671 6.566853 30.345147
266 2 12.552369 6.654675 32.613179
267 2 12.940569 9.310614 29.580000
268 1 9.093775 1.279531 24.202194
269 1 4.404405 5.270584 25.764271
270 1 5.646513 7.330503 25.234393
271 1 1.613574 8.944470 26.037297
272 1 5.746866 9.047239 25.053218
273 1 12.423539 0.911128 25.348254
274 1 9.522130 1.001184 24.711006
275 1 11.185139 5.420766 24.866900
276 1 11.328136 6.065201 25.677459
277 1 12.044188 8.479106 24.173205
278 1 14.899517 9.053071 25.131483
279 1 0.373976 0.005040 29.134289
280 1 1.502768 0.561048 29.999740
281 1 4.601682 2.027327 26.497878
282 1 0.118855 6.347615 29.565654
283 1 1.758084 7.824560 27.906162
284 1 6.697788 3.194923 27.602451
285 1 8.083809 3.625115 28.844656
286 1 12.504597 4.410631 26.142782
287 1 17.055906 5.653484 30.254212
288 1 9.738532 6.636082 27.652364
289 1 10.137069 7.992207 28.786569
290 1 3.534169 0.315331 33.760456
291 1 4.993697 0.551977 32.101472
292 1 6.030223 1.416086 33.285512
293 1 2.679389 9.275967 31.768836
294 1 4.681870 9.604560 31.166239
295 1 14.861580 0.275832 33.841271
296 1 14.198687 2.508094 30.703643
297 1 16.832550 2.748723 30.647072
298 1 11.290187 5.654194 33.009364
299 1 13.680811 7.868964 31.677539
300 1 6.553940 8.453015 33.545078
