300
Atoms. Timestep: 0
84054944              3.087677                     5               34.3065
84054944              3.087677                     5               36.7665
84054944              3.087677                     5               39.2265
84054944              3.087677                     5               41.6865
84054944              3.087677                     5               44.1465
84054944              3.087677                     5               46.6065
84054944              3.087677                     5               49.0665
84054944              5.229139                     5               33.0765
84054944              5.229139                     5               35.5365
84054944              5.229139                     5               37.9965
84054944              5.229139                     5               40.4565
84054944              5.229139                     5               42.9165
84054944              5.229139                     5               45.3765
84054944              5.229139                     5               47.8365
84054944              4.515433                     5               34.3065
84054944              4.515433                     5               36.7665
84054944              4.515433                     5               39.2265
84054944              4.515433                     5               41.6865
84054944              4.515433                     5               44.1465
84054944              4.515433                     5               46.6065
84054944              4.515433                     5               49.0665
84054944              6.656895                     5               33.0765
84054944              6.656895                     5               35.5365
84054944              6.656895                     5               37.9965
84054944              6.656895                     5               40.4565
84054944              6.656895                     5               42.9165
84054944              6.656895                     5               45.3765
84054944              6.656895                     5               47.8365
84054944              7.370602                     5               34.3065
84054944              7.370602                     5               36.7665
84054912              7.370602                     5               39.2265
84054912              7.370602                     5               41.6865
84054912              7.370602                     5               44.1465
84054912              7.370602                     5               46.6065
84054912              7.370602                     5               49.0665
84054912              9.512064                     5               33.0765
84054912              9.512064                     5               35.5365
84054912              9.512064                     5               37.9965
84054912              9.512064                     5               40.4565
84054912              9.512064                     5               42.9165
84054912              9.512064                     5               45.3765
84054912              9.512064                     5               47.8365
84054912              8.798358                     5               34.3065
84054912              8.798358                     5               36.7665
84054912              8.798358                     5               39.2265
84054912              8.798358                     5               41.6865
84054912              8.798358                     5               44.1465
84054912              8.798358                     5               46.6065
84054912              8.798358                     5               49.0665
84054912              10.93982                     5               33.0765
84054912              10.93982                     5               35.5365
84054912              10.93982                     5               37.9965
84054912              10.93982                     5               40.4565
84054912              10.93982                     5               42.9165
84054912              10.93982                     5               45.3765
84054912              10.93982                     5               47.8365
84054912             11.653527                     5               34.3065
84054912             11.653527                     5               36.7665
84054912             11.653527                     5               39.2265
84054912             11.653527                     5               41.6865
84054912             11.653527                     5               44.1465
84054912             11.653527                     5               46.6065
84054912             11.653527                     5               49.0665
84054912             13.794989                     5               33.0765
84054912             13.794989                     5               35.5365
84054912             13.794989                     5               37.9965
84054912             13.794989                     5               40.4565
84054912             13.794989                     5               42.9165
84054912             13.794989                     5               45.3765
84054912             13.794989                     5               47.8365
84054912             13.081283                     5               34.3065
84054912             13.081283                     5               36.7665
84054912             13.081283                     5               39.2265
84054912             13.081283                     5               41.6865
84054912             13.081283                     5               44.1465
84054912             13.081283                     5               46.6065
84054912             13.081283                     5               49.0665
84054912             15.222745                     5               33.0765
84054912             15.222745                     5               35.5365
84054912             15.222745                     5               37.9965
84054912             15.222745                     5               40.4565
84054912             15.222745                     5               42.9165
84054912             15.222745                     5               45.3765
84054912             15.222745                     5               47.8365
84054912             15.936452                     5               34.3065
84054912             15.936452                     5               36.7665
84054912             15.936452                     5               39.2265
84054912             15.936452                     5               41.6865
84054912             15.936452                     5               44.1465
84054912             15.936452                     5               46.6065
84054912             15.936452                     5               49.0665
84054912              0.946214                     5               33.0765
84054912              0.946214                     5               35.5365
84054912              0.946214                     5               37.9965
84054912              0.946214                     5               40.4565
84054912              0.946214                     5               42.9165
84054912              0.946214                     5               45.3765
84054912              0.946214                     5               47.8365
84054912              0.232508                     5               34.3065
84054912              0.232508                     5               36.7665
84054912              0.232508                     5               39.2265
84054912              0.232508                     5               41.6865
84054912              0.232508                     5               44.1465
84054912              0.232508                     5               46.6065
84054912              0.232508                     5               49.0665
84054912               2.37397                     5               33.0765
84054912               2.37397                     5               35.5365
84054912               2.37397                     5               37.9965
84054912               2.37397                     5               40.4565
84054912               2.37397                     5               42.9165
84054912               2.37397                     5               45.3765
84054912               2.37397                     5               47.8365
84054944              2.517534                     5     0.054000000000002
84054944              5.085404                     5     0.054000000000002
84054944              6.802686                     5    0.0549999999999997
84054944              9.368329                     5     0.054000000000002
84054944             11.085611                     5    0.0549999999999997
84054944             13.651254                     5     0.054000000000002
84054944             15.368536                     5    0.0549999999999997
84054944              0.802479                     5     0.054000000000002
84054912             17.091783                     5                8.5655
84054912             17.091783                     5               12.8265
84054912             17.091783                     5               17.0875
84054912             17.091783                     5                21.348
84054912             17.091783                     5                 9.986
84054912             17.091783                     5               14.2465
84054912             17.091783                     5               18.5075
84054912             17.091783                     5               22.7685
84054912             15.868066                     5                10.696
84054912             15.868066                     5                14.957
84054912             15.868066                     5               19.2175
84054912             15.868066                     5               23.4785
84054912             15.868066                     5                7.8555
84054912             15.868066                     5               12.1165
84054912             15.868066                     5                16.377
84054912             15.868066                     5                20.638
84054912             14.644348                     5                8.5655
84054912             14.644348                     5               12.8265
84054912             14.644348                     5               17.0875
84054912             14.644348                     5                21.348
84054912             13.420631                     5                10.696
84054912             13.420631                     5                14.957
84054912             13.420631                     5               19.2175
84054912             13.420631                     5               23.4785
84054912             14.644348                     5                 9.986
84054912             14.644348                     5               14.2465
84054912             14.644348                     5               18.5075
84054912             14.644348                     5               22.7685
84054912             13.420631                     5                7.8555
84054912             13.420631                     5               12.1165
84054912             13.420631                     5                16.377
84054912             13.420631                     5                20.638
84054912             12.197085                     5                8.5655
84054912             12.197085                     5               12.8265
84054912             12.197085                     5               17.0875
84054912             12.197085                     5                21.348
84054912             10.973368                     5                10.696
84054912             10.973368                     5                14.957
84054912             10.973368                     5               19.2175
84054912             10.973368                     5               23.4785
84054912             12.197085                     5                 9.986
84054912             12.197085                     5               14.2465
84054912             12.197085                     5               18.5075
84054912             12.197085                     5               22.7685
84054912             10.973368                     5                7.8555
84054912             10.973368                     5               12.1165
84054912             10.973368                     5                16.377
84054912             10.973368                     5                20.638
84054912               9.74965                     5                8.5655
84054912               9.74965                     5               12.8265
84054912               9.74965                     5               17.0875
84054912               9.74965                     5                21.348
84054912              8.525933                     5                10.696
84054912              8.525933                     5                14.957
84054912              8.525933                     5               19.2175
84054912              8.525933                     5               23.4785
84054912               9.74965                     5                 9.986
84054912               9.74965                     5               14.2465
84054912               9.74965                     5               18.5075
84054912               9.74965                     5               22.7685
84054912              8.525933                     5                7.8555
84054912              8.525933                     5               12.1165
84054912              8.525933                     5                16.377
84054912              8.525933                     5                20.638
84054912              7.302216                     5                8.5655
84054912              7.302216                     5               12.8265
84054912              7.302216                     5               17.0875
84054912              7.302216                     5                21.348
84054912              6.078498                     5                10.696
84054912              6.078498                     5                14.957
84054912              6.078498                     5               19.2175
84054912              6.078498                     5               23.4785
84054912              7.302216                     5                 9.986
84054912              7.302216                     5               14.2465
84054912              7.302216                     5               18.5075
84054912              7.302216                     5               22.7685
84054912              6.078498                     5                7.8555
84054912              6.078498                     5               12.1165
84054912              6.078498                     5                16.377
84054912              6.078498                     5                20.638
84054912              4.854781                     5                8.5655
84054912              4.854781                     5               12.8265
84054912              4.854781                     5               17.0875
84054912              4.854781                     5                21.348
84054912              3.631235                     5                10.696
84054912              3.631235                     5                14.957
84054912              3.631235                     5               19.2175
84054912              3.631235                     5               23.4785
84054912              4.854781                     5                 9.986
84054912              4.854781                     5               14.2465
84054912              4.854781                     5               18.5075
84054912              4.854781                     5               22.7685
84054912              3.631235                     5                7.8555
84054912              3.631235                     5               12.1165
84054912              3.631235                     5                16.377
84054912              3.631235                     5                20.638
84054912              2.407518                     5                8.5655
84054912              2.407518                     5               12.8265
84054912              2.407518                     5               17.0875
84054912              2.407518                     5                21.348
84054912                1.1838                     5                10.696
84054912                1.1838                     5                14.957
84054912                1.1838                     5               19.2175
84054912                1.1838                     5               23.4785
84054912              2.407518                     5                 9.986
84054912              2.407518                     5               14.2465
84054912              2.407518                     5               18.5075
84054912              2.407518                     5               22.7685
84054912                1.1838                     5                7.8555
84054912                1.1838                     5               12.1165
84054912                1.1838                     5                16.377
84054912                1.1838                     5                20.638
84054944             15.865667                     5                6.7155
84054944              13.42303                     5                6.7155
84054944             10.975766                     5                6.7155
84054944              8.528332                     5                6.7155
84054944              6.080897                     5                6.7155
84054944              3.633634                     5                6.7155
84054944              1.181402                     5                6.7155
84054944              2.733002               9.42617                  23.5
84054944              8.173408              4.280209             25.427084
84054944              9.042963              6.031655                  23.5
84054944              9.216304              9.644205             26.014667
84054944             11.685094              1.148279                  23.5
84054944             13.081733              4.062012                  23.5
84054944              9.816735              9.089008                  23.5
84054944             10.020018              0.498108             25.251533
84054944              16.93299              2.327895             24.606146
84054944              9.408718              8.236263             25.058094
84054944              1.745644              0.259946             24.265774
84054944                6.1003              4.223299             26.604382
84054944              4.692782              8.547864             24.660319
84054944              10.00829               0.41317             25.948524
84054944             12.646591              3.140454             26.105348
84054944              1.557699              5.707317             26.176589
84054944             11.917502              3.708879             24.692031
84054944             15.795622              8.444666             26.263202
84054944              4.406227              1.392065             32.590006
84054944              5.869452              5.947302             27.765559
84054944              8.093746              6.116003             27.323665
84054944              6.798127              6.954132             29.286333
84054944              3.711933              8.786436              29.03923
84054944              5.936986              7.272256             27.269488
84054944             11.688229              8.488869             31.416361
84054944             16.877672              6.674783             31.089445
84054944             16.978319              8.122487             28.006854
84054944             12.626975              8.908036             27.312981
84054912              1.568402              3.508215             24.972735
84054912              3.064879               6.33812              25.37272
84054912              2.863595              9.723758             26.107479
84054912             16.784696              2.296086              26.14078
84054912               5.54981              0.951207             23.516841
84054912             10.099293              1.569873             26.047273
84054912             10.533038              2.722102             25.161696
84054912              6.817706              4.126553             26.894285
84054912             17.043083              2.313402             24.822862
84054912              9.226792              7.756401             25.220405
84054912              0.062222              8.273062             24.627793
84054912              5.247017              7.704181             24.999139
84054912              9.224446              8.814051              25.03717
84054912              8.023833              2.159902             29.529024
84054912              8.187285              7.196966             26.643435
84054912               1.33588              9.976222             25.966834
84054912             15.203458              0.531734             28.636545
84054912              6.626385              3.851582             27.911286
84054912              0.080782              5.889198             27.198429
84054912             12.074832              6.950246             29.671147
84054912              5.246443              6.183109             26.545564
84054912              0.886624              9.646436             30.621381
84054912              3.550261              2.118878                    33
84054912              8.368506              4.424586             32.109072
84054912              2.115817               6.51008             29.585092
84054912              5.477458              5.242686             32.372436
84054912              4.722862              9.453856             29.684577
84054912             11.103298              8.488754                    33
84054912              9.694348              3.251237             31.789617
84054912             14.819463              5.334168             29.754672
84054912             16.313499              7.321709                    33
84054912              2.295038              7.760314             31.382155
84054912             13.166375              0.434308             31.817277
300
Atoms. Timestep: 10
84054944      3.08381092947449                     5      34.3081760453717
84054944      3.08381092947449                     5      36.7681760453717
84054944      3.08381092947449                     5      39.2281760453717
84054944      3.08381092947449                     5      41.6881760453717
84054944      3.08381092947449                     5      44.1481760453717
84054944      3.08381092947449                     5      46.6081760453717
84054944      3.08381092947449                     5      49.0681760453717
84054944      5.22527292947449                     5      33.0781760453717
84054944      5.22527292947449                     5      35.5381760453717
84054944      5.22527292947449                     5      37.9981760453717
84054944      5.22527292947449                     5      40.4581760453717
84054944      5.22527292947449                     5      42.9181760453717
84054944      5.22527292947449                     5      45.3781760453717
84054944      5.22527292947449                     5      47.8381760453717
84054944      4.51156692947449                     5      34.3081760453717
84054944      4.51156692947449                     5      36.7681760453717
84054944      4.51156692947449                     5      39.2281760453717
84054944      4.51156692947449                     5      41.6881760453717
84054944      4.51156692947449                     5      44.1481760453717
84054944      4.51156692947449                     5      46.6081760453717
84054944      4.51156692947449                     5      49.0681760453717
84054944      6.65302892947449                     5      33.0781760453717
84054944      6.65302892947449                     5      35.5381760453717
84054944      6.65302892947449                     5      37.9981760453717
84054944      6.65302892947449                     5      40.4581760453717
84054944      6.65302892947449                     5      42.9181760453717
84054944      6.65302892947449                     5      45.3781760453717
84054944      6.65302892947449                     5      47.8381760453717
84054944      7.36673592947449                     5      34.3081760453717
84054944      7.36673592947449                     5      36.7681760453717
84054912      7.36673592947449                     5      39.2281760453717
84054912      7.36673592947449                     5      41.6881760453717
84054912      7.36673592947449                     5      44.1481760453717
84054912      7.36673592947449                     5      46.6081760453717
84054912      7.36673592947449                     5      49.0681760453717
84054912       9.5081979294745                     5      33.0781760453717
84054912       9.5081979294745                     5      35.5381760453717
84054912       9.5081979294745                     5      37.9981760453717
84054912       9.5081979294745                     5      40.4581760453717
84054912       9.5081979294745                     5      42.9181760453717
84054912       9.5081979294745                     5      45.3781760453717
84054912       9.5081979294745                     5      47.8381760453717
84054912       8.7944919294745                     5      34.3081760453717
84054912       8.7944919294745                     5      36.7681760453717
84054912       8.7944919294745                     5      39.2281760453717
84054912       8.7944919294745                     5      41.6881760453717
84054912       8.7944919294745                     5      44.1481760453717
84054912       8.7944919294745                     5      46.6081760453717
84054912       8.7944919294745                     5      49.0681760453717
84054912      10.9359539294745                     5      33.0781760453717
84054912      10.9359539294745                     5      35.5381760453717
84054912      10.9359539294745                     5      37.9981760453717
84054912      10.9359539294745                     5      40.4581760453717
84054912      10.9359539294745                     5      42.9181760453717
84054912      10.9359539294745                     5      45.3781760453717
84054912      10.9359539294745                     5      47.8381760453717
84054912      11.6496609294745                     5      34.3081760453717
84054912      11.6496609294745                     5      36.7681760453717
84054912      11.6496609294745                     5      39.2281760453717
84054912      11.6496609294745                     5      41.6881760453717
84054912      11.6496609294745                     5      44.1481760453717
84054912      11.6496609294745                     5      46.6081760453717
84054912      11.6496609294745                     5      49.0681760453717
84054912      13.7911229294745                     5      33.0781760453717
84054912      13.7911229294745                     5      35.5381760453717
84054912      13.7911229294745                     5      37.9981760453717
84054912      13.7911229294745                     5      40.4581760453717
84054912      13.7911229294745                     5      42.9181760453717
84054912      13.7911229294745                     5      45.3781760453717
84054912      13.7911229294745                     5      47.8381760453717
84054912      13.0774169294745                     5      34.3081760453717
84054912      13.0774169294745                     5      36.7681760453717
84054912      13.0774169294745                     5      39.2281760453717
84054912      13.0774169294745                     5      41.6881760453717
84054912      13.0774169294745                     5      44.1481760453717
84054912      13.0774169294745                     5      46.6081760453717
84054912      13.0774169294745                     5      49.0681760453717
84054912      15.2188789294745                     5      33.0781760453717
84054912      15.2188789294745                     5      35.5381760453717
84054912      15.2188789294745                     5      37.9981760453717
84054912      15.2188789294745                     5      40.4581760453717
84054912      15.2188789294745                     5      42.9181760453717
84054912      15.2188789294745                     5      45.3781760453717
84054912      15.2188789294745                     5      47.8381760453717
84054912      15.9325859294745                     5      34.3081760453717
84054912      15.9325859294745                     5      36.7681760453717
84054912      15.9325859294745                     5      39.2281760453717
84054912      15.9325859294745                     5      41.6881760453717
84054912      15.9325859294745                     5      44.1481760453717
84054912      15.9325859294745                     5      46.6081760453717
84054912      15.9325859294745                     5      49.0681760453717
84054912     0.942347929474493                     5      33.0781760453717
84054912     0.942347929474493                     5      35.5381760453717
84054912     0.942347929474493                     5      37.9981760453717
84054912     0.942347929474493                     5      40.4581760453717
84054912     0.942347929474493                     5      42.9181760453717
84054912     0.942347929474493                     5      45.3781760453717
84054912     0.942347929474493                     5      47.8381760453717
84054912     0.228641929474493                     5      34.3081760453717