search structure

300 atoms
2  atom types

0   17.131700 xlo xhi
0   10.000000 ylo yhi
0   50.000000 zlo zhi

Atoms

1 2 3.087677 5.000000 34.306500
2 2 3.087677 5.000000 36.766500
3 2 3.087677 5.000000 39.226500
4 2 3.087677 5.000000 41.686500
5 2 3.087677 5.000000 44.146500
6 2 3.087677 5.000000 46.606500
7 2 3.087677 5.000000 49.066500
8 2 5.229139 5.000000 33.076500
9 2 5.229139 5.000000 35.536500
10 2 5.229139 5.000000 37.996500
11 2 5.229139 5.000000 40.456500
12 2 5.229139 5.000000 42.916500
13 2 5.229139 5.000000 45.376500
14 2 5.229139 5.000000 47.836500
15 2 4.515433 5.000000 34.306500
16 2 4.515433 5.000000 36.766500
17 2 4.515433 5.000000 39.226500
18 2 4.515433 5.000000 41.686500
19 2 4.515433 5.000000 44.146500
20 2 4.515433 5.000000 46.606500
21 2 4.515433 5.000000 49.066500
22 2 6.656895 5.000000 33.076500
23 2 6.656895 5.000000 35.536500
24 2 6.656895 5.000000 37.996500
25 2 6.656895 5.000000 40.456500
26 2 6.656895 5.000000 42.916500
27 2 6.656895 5.000000 45.376500
28 2 6.656895 5.000000 47.836500
29 2 7.370602 5.000000 34.306500
30 2 7.370602 5.000000 36.766500
31 1 7.370602 5.000000 39.226500
32 1 7.370602 5.000000 41.686500
33 1 7.370602 5.000000 44.146500
34 1 7.370602 5.000000 46.606500
35 1 7.370602 5.000000 49.066500
36 1 9.512064 5.000000 33.076500
37 1 9.512064 5.000000 35.536500
38 1 9.512064 5.000000 37.996500
39 1 9.512064 5.000000 40.456500
40 1 9.512064 5.000000 42.916500
41 1 9.512064 5.000000 45.376500
42 1 9.512064 5.000000 47.836500
43 1 8.798358 5.000000 34.306500
44 1 8.798358 5.000000 36.766500
45 1 8.798358 5.000000 39.226500
46 1 8.798358 5.000000 41.686500
47 1 8.798358 5.000000 44.146500
48 1 8.798358 5.000000 46.606500
49 1 8.798358 5.000000 49.066500
50 1 10.939820 5.000000 33.076500
51 1 10.939820 5.000000 35.536500
52 1 10.939820 5.000000 37.996500
53 1 10.939820 5.000000 40.456500
54 1 10.939820 5.000000 42.916500
55 1 10.939820 5.000000 45.376500
56 1 10.939820 5.000000 47.836500
57 1 11.653527 5.000000 34.306500
58 1 11.653527 5.000000 36.766500
59 1 11.653527 5.000000 39.226500
60 1 11.653527 5.000000 41.686500
61 1 11.653527 5.000000 44.146500
62 1 11.653527 5.000000 46.606500
63 1 11.653527 5.000000 49.066500
64 1 13.794989 5.000000 33.076500
65 1 13.794989 5.000000 35.536500
66 1 13.794989 5.000000 37.996500
67 1 13.794989 5.000000 40.456500
68 1 13.794989 5.000000 42.916500
69 1 13.794989 5.000000 45.376500
70 1 13.794989 5.000000 47.836500
71 1 13.081283 5.000000 34.306500
72 1 13.081283 5.000000 36.766500
73 1 13.081283 5.000000 39.226500
74 1 13.081283 5.000000 41.686500
75 1 13.081283 5.000000 44.146500
76 1 13.081283 5.000000 46.606500
77 1 13.081283 5.000000 49.066500
78 1 15.222745 5.000000 33.076500
79 1 15.222745 5.000000 35.536500
80 1 15.222745 5.000000 37.996500
81 1 15.222745 5.000000 40.456500
82 1 15.222745 5.000000 42.916500
83 1 15.222745 5.000000 45.376500
84 1 15.222745 5.000000 47.836500
85 1 15.936452 5.000000 34.306500
86 1 15.936452 5.000000 36.766500
87 1 15.936452 5.000000 39.226500
88 1 15.936452 5.000000 41.686500
89 1 15.936452 5.000000 44.146500
90 1 15.936452 5.000000 46.606500
91 1 15.936452 5.000000 49.066500
92 1 0.946214 5.000000 33.076500
93 1 0.946214 5.000000 35.536500
94 1 0.946214 5.000000 37.996500
95 1 0.946214 5.000000 40.456500
96 1 0.946214 5.000000 42.916500
97 1 0.946214 5.000000 45.376500
98 1 0.946214 5.000000 47.836500
99 1 0.232508 5.000000 34.306500
100 1 0.232508 5.000000 36.766500
101 1 0.232508 5.000000 39.226500
102 1 0.232508 5.000000 41.686500
103 1 0.232508 5.000000 44.146500
104 1 0.232508 5.000000 46.606500
105 1 0.232508 5.000000 49.066500
106 1 2.373970 5.000000 33.076500
107 1 2.373970 5.000000 35.536500
108 1 2.373970 5.000000 37.996500
109 1 2.373970 5.000000 40.456500
110 1 2.373970 5.000000 42.916500
111 1 2.373970 5.000000 45.376500
112 1 2.373970 5.000000 47.836500
113 2 2.517534 5.000000 50.054000
114 2 5.085404 5.000000 50.054000
115 2 6.802686 5.000000 50.055000
116 2 9.368329 5.000000 50.054000
117 2 11.085611 5.000000 50.055000
118 2 13.651254 5.000000 50.054000
119 2 15.368536 5.000000 50.055000
120 2 0.802479 5.000000 50.054000
121 1 -0.039917 5.000000 8.565500
122 1 -0.039917 5.000000 12.826500
123 1 -0.039917 5.000000 17.087500
124 1 -0.039917 5.000000 21.348000
125 1 -0.039917 5.000000 9.986000
126 1 -0.039917 5.000000 14.246500
127 1 -0.039917 5.000000 18.507500
128 1 -0.039917 5.000000 22.768500
129 1 15.868066 5.000000 10.696000
130 1 15.868066 5.000000 14.957000
131 1 15.868066 5.000000 19.217500
132 1 15.868066 5.000000 23.478500
133 1 15.868066 5.000000 7.855500
134 1 15.868066 5.000000 12.116500
135 1 15.868066 5.000000 16.377000
136 1 15.868066 5.000000 20.638000
137 1 14.644348 5.000000 8.565500
138 1 14.644348 5.000000 12.826500
139 1 14.644348 5.000000 17.087500
140 1 14.644348 5.000000 21.348000
141 1 13.420631 5.000000 10.696000
142 1 13.420631 5.000000 14.957000
143 1 13.420631 5.000000 19.217500
144 1 13.420631 5.000000 23.478500
145 1 14.644348 5.000000 9.986000
146 1 14.644348 5.000000 14.246500
147 1 14.644348 5.000000 18.507500
148 1 14.644348 5.000000 22.768500
149 1 13.420631 5.000000 7.855500
150 1 13.420631 5.000000 12.116500
151 1 13.420631 5.000000 16.377000
152 1 13.420631 5.000000 20.638000
153 1 12.197085 5.000000 8.565500
154 1 12.197085 5.000000 12.826500
155 1 12.197085 5.000000 17.087500
156 1 12.197085 5.000000 21.348000
157 1 10.973368 5.000000 10.696000
158 1 10.973368 5.000000 14.957000
159 1 10.973368 5.000000 19.217500
160 1 10.973368 5.000000 23.478500
161 1 12.197085 5.000000 9.986000
162 1 12.197085 5.000000 14.246500
163 1 12.197085 5.000000 18.507500
164 1 12.197085 5.000000 22.768500
165 1 10.973368 5.000000 7.855500
166 1 10.973368 5.000000 12.116500
167 1 10.973368 5.000000 16.377000
168 1 10.973368 5.000000 20.638000
169 1 9.749650 5.000000 8.565500
170 1 9.749650 5.000000 12.826500
171 1 9.749650 5.000000 17.087500
172 1 9.749650 5.000000 21.348000
173 1 8.525933 5.000000 10.696000
174 1 8.525933 5.000000 14.957000
175 1 8.525933 5.000000 19.217500
176 1 8.525933 5.000000 23.478500
177 1 9.749650 5.000000 9.986000
178 1 9.749650 5.000000 14.246500
179 1 9.749650 5.000000 18.507500
180 1 9.749650 5.000000 22.768500
181 1 8.525933 5.000000 7.855500
182 1 8.525933 5.000000 12.116500
183 1 8.525933 5.000000 16.377000
184 1 8.525933 5.000000 20.638000
185 1 7.302216 5.000000 8.565500
186 1 7.302216 5.000000 12.826500
187 1 7.302216 5.000000 17.087500
188 1 7.302216 5.000000 21.348000
189 1 6.078498 5.000000 10.696000
190 1 6.078498 5.000000 14.957000
191 1 6.078498 5.000000 19.217500
192 1 6.078498 5.000000 23.478500
193 1 7.302216 5.000000 9.986000
194 1 7.302216 5.000000 14.246500
195 1 7.302216 5.000000 18.507500
196 1 7.302216 5.000000 22.768500
197 1 6.078498 5.000000 7.855500
198 1 6.078498 5.000000 12.116500
199 1 6.078498 5.000000 16.377000
200 1 6.078498 5.000000 20.638000
201 1 4.854781 5.000000 8.565500
202 1 4.854781 5.000000 12.826500
203 1 4.854781 5.000000 17.087500
204 1 4.854781 5.000000 21.348000
205 1 3.631235 5.000000 10.696000
206 1 3.631235 5.000000 14.957000
207 1 3.631235 5.000000 19.217500
208 1 3.631235 5.000000 23.478500
209 1 4.854781 5.000000 9.986000
210 1 4.854781 5.000000 14.246500
211 1 4.854781 5.000000 18.507500
212 1 4.854781 5.000000 22.768500
213 1 3.631235 5.000000 7.855500
214 1 3.631235 5.000000 12.116500
215 1 3.631235 5.000000 16.377000
216 1 3.631235 5.000000 20.638000
217 1 2.407518 5.000000 8.565500
218 1 2.407518 5.000000 12.826500
219 1 2.407518 5.000000 17.087500
220 1 2.407518 5.000000 21.348000
221 1 1.183800 5.000000 10.696000
222 1 1.183800 5.000000 14.957000
223 1 1.183800 5.000000 19.217500
224 1 1.183800 5.000000 23.478500
225 1 2.407518 5.000000 9.986000
226 1 2.407518 5.000000 14.246500
227 1 2.407518 5.000000 18.507500
228 1 2.407518 5.000000 22.768500
229 1 1.183800 5.000000 7.855500
230 1 1.183800 5.000000 12.116500
231 1 1.183800 5.000000 16.377000
232 1 1.183800 5.000000 20.638000
233 2 15.865667 5.000000 6.715500
234 2 13.423030 5.000000 6.715500
235 2 10.975766 5.000000 6.715500
236 2 8.528332 5.000000 6.715500
237 2 6.080897 5.000000 6.715500
238 2 3.633634 5.000000 6.715500
239 2 1.181402 5.000000 6.715500
240 2 2.733002 9.426170 23.500000
241 2 8.173408 4.280209 25.427084
242 2 9.042963 6.031655 23.500000
243 2 9.216304 9.644205 26.014667
244 2 11.685094 1.148279 23.500000
245 2 13.081733 4.062012 23.500000
246 2 9.816735 9.089008 23.500000
247 2 10.020018 0.498108 25.251533
248 2 16.932990 2.327895 24.606146
249 2 9.408718 8.236263 25.058094
250 2 1.745644 0.259946 24.265774
251 2 6.100300 4.223299 26.604382
252 2 4.692782 8.547864 24.660319
253 2 10.008290 0.413170 25.948524
254 2 12.646591 3.140454 26.105348
255 2 1.557699 5.707317 26.176589
256 2 11.917502 3.708879 24.692031
257 2 15.795622 8.444666 26.263202
258 2 4.406227 1.392065 32.590006
259 2 5.869452 5.947302 27.765559
260 2 8.093746 6.116003 27.323665
261 2 6.798127 6.954132 29.286333
262 2 3.711933 8.786436 29.039230
263 2 5.936986 7.272256 27.269488
264 2 11.688229 8.488869 31.416361
265 2 16.877672 6.674783 31.089445
266 2 16.978319 8.122487 28.006854
267 2 12.626975 8.908036 27.312981
268 1 1.568402 3.508215 24.972735
269 1 3.064879 6.338120 25.372720
270 1 2.863595 9.723758 26.107479
271 1 16.784696 2.296086 26.140780
272 1 5.549810 0.951207 23.516841
273 1 10.099293 1.569873 26.047273
274 1 10.533038 2.722102 25.161696
275 1 6.817706 4.126553 26.894285
276 1 17.043083 2.313402 24.822862
277 1 9.226792 7.756401 25.220405
278 1 0.062222 8.273062 24.627793
279 1 5.247017 7.704181 24.999139
280 1 9.224446 8.814051 25.037170
281 1 8.023833 2.159902 29.529024
282 1 8.187285 7.196966 26.643435
283 1 1.335880 9.976222 25.966834
284 1 15.203458 0.531734 28.636545
285 1 6.626385 3.851582 27.911286
286 1 0.080782 5.889198 27.198429
287 1 12.074832 6.950246 29.671147
288 1 5.246443 6.183109 26.545564
289 1 0.886624 9.646436 30.621381
290 1 3.550261 2.118878 33.000000
291 1 8.368506 4.424586 32.109072
292 1 2.115817 6.510080 29.585092
293 1 5.477458 5.242686 32.372436
294 1 4.722862 9.453856 29.684577
295 1 11.103298 8.488754 33.000000
296 1 9.694348 3.251237 31.789617
297 1 14.819463 5.334168 29.754672
298 1 16.313499 7.321709 33.000000
299 1 2.295038 7.760314 31.382155
300 1 13.166375 0.434308 31.817277
