300
Atoms. Timestep: 0
83309472              2.293429                     5               34.3065
83309472              2.293429                     5               36.7665
83309472              2.293429                     5               39.2265
83309472              2.293429                     5               41.6865
83309472              2.293429                     5               44.1465
83309472              2.293429                     5               46.6065
83309472              2.293429                     5               49.0665
83309472              4.434892                     5               33.0765
83309472              4.434892                     5               35.5365
83309472              4.434892                     5               37.9965
83309472              4.434892                     5               40.4565
83309472              4.434892                     5               42.9165
83309472              4.434892                     5               45.3765
83309472              4.434892                     5               47.8365
83309472              3.721185                     5               34.3065
83309472              3.721185                     5               36.7665
83309472              3.721185                     5               39.2265
83309472              3.721185                     5               41.6865
83309472              3.721185                     5               44.1465
83309472              3.721185                     5               46.6065
83309472              3.721185                     5               49.0665
83309472              5.862648                     5               33.0765
83309472              5.862648                     5               35.5365
83309472              5.862648                     5               37.9965
83309472              5.862648                     5               40.4565
83309472              5.862648                     5               42.9165
83309472              5.862648                     5               45.3765
83309472              5.862648                     5               47.8365
83309472              6.576354                     5               34.3065
83309472              6.576354                     5               36.7665
83309440              6.576354                     5               39.2265
83309440              6.576354                     5               41.6865
83309440              6.576354                     5               44.1465
83309440              6.576354                     5               46.6065
83309440              6.576354                     5               49.0665
83309440              8.717817                     5               33.0765
83309440              8.717817                     5               35.5365
83309440              8.717817                     5               37.9965
83309440              8.717817                     5               40.4565
83309440              8.717817                     5               42.9165
83309440              8.717817                     5               45.3765
83309440              8.717817                     5               47.8365
83309440               8.00411                     5               34.3065
83309440               8.00411                     5               36.7665
83309440               8.00411                     5               39.2265
83309440               8.00411                     5               41.6865
83309440               8.00411                     5               44.1465
83309440               8.00411                     5               46.6065
83309440               8.00411                     5               49.0665
83309440             10.145573                     5               33.0765
83309440             10.145573                     5               35.5365
83309440             10.145573                     5               37.9965
83309440             10.145573                     5               40.4565
83309440             10.145573                     5               42.9165
83309440             10.145573                     5               45.3765
83309440             10.145573                     5               47.8365
83309440             10.859279                     5               34.3065
83309440             10.859279                     5               36.7665
83309440             10.859279                     5               39.2265
83309440             10.859279                     5               41.6865
83309440             10.859279                     5               44.1465
83309440             10.859279                     5               46.6065
83309440             10.859279                     5               49.0665
83309440             13.000742                     5               33.0765
83309440             13.000742                     5               35.5365
83309440             13.000742                     5               37.9965
83309440             13.000742                     5               40.4565
83309440             13.000742                     5               42.9165
83309440             13.000742                     5               45.3765
83309440             13.000742                     5               47.8365
83309440             12.287035                     5               34.3065
83309440             12.287035                     5               36.7665
83309440             12.287035                     5               39.2265
83309440             12.287035                     5               41.6865
83309440             12.287035                     5               44.1465
83309440             12.287035                     5               46.6065
83309440             12.287035                     5               49.0665
83309440             14.428498                     5               33.0765
83309440             14.428498                     5               35.5365
83309440             14.428498                     5               37.9965
83309440             14.428498                     5               40.4565
83309440             14.428498                     5               42.9165
83309440             14.428498                     5               45.3765
83309440             14.428498                     5               47.8365
83309440             15.142204                     5               34.3065
83309440             15.142204                     5               36.7665
83309440             15.142204                     5               39.2265
83309440             15.142204                     5               41.6865
83309440             15.142204                     5               44.1465
83309440             15.142204                     5               46.6065
83309440             15.142204                     5               49.0665
83309440              0.151967                     5               33.0765
83309440              0.151967                     5               35.5365
83309440              0.151967                     5               37.9965
83309440              0.151967                     5               40.4565
83309440              0.151967                     5               42.9165
83309440              0.151967                     5               45.3765
83309440              0.151967                     5               47.8365
83309440              16.56996                     5               34.3065
83309440              16.56996                     5               36.7665
83309440              16.56996                     5               39.2265
83309440              16.56996                     5               41.6865
83309440              16.56996                     5               44.1465
83309440              16.56996                     5               46.6065
83309440              16.56996                     5               49.0665
83309440              1.579723                     5               33.0765
83309440              1.579723                     5               35.5365
83309440              1.579723                     5               37.9965
83309440              1.579723                     5               40.4565
83309440              1.579723                     5               42.9165
83309440              1.579723                     5               45.3765
83309440              1.579723                     5               47.8365
83309472              1.723287                     5     0.054000000000002
83309472              4.291157                     5     0.054000000000002
83309472              6.008439                     5    0.0549999999999997
83309472              8.574082                     5     0.054000000000002
83309472             10.291364                     5    0.0549999999999997
83309472             12.857007                     5     0.054000000000002
83309472             14.574289                     5    0.0549999999999997
83309472              0.008232                     5     0.054000000000002
83309440             17.091783                     5                8.5655
83309440             17.091783                     5               12.8265
83309440             17.091783                     5               17.0875
83309440             17.091783                     5                21.348
83309440             17.091783                     5                 9.986
83309440             17.091783                     5               14.2465
83309440             17.091783                     5               18.5075
83309440             17.091783                     5               22.7685
83309440             15.868066                     5                10.696
83309440             15.868066                     5                14.957
83309440             15.868066                     5               19.2175
83309440             15.868066                     5               23.4785
83309440             15.868066                     5                7.8555
83309440             15.868066                     5               12.1165
83309440             15.868066                     5                16.377
83309440             15.868066                     5                20.638
83309440             14.644348                     5                8.5655
83309440             14.644348                     5               12.8265
83309440             14.644348                     5               17.0875
83309440             14.644348                     5                21.348
83309440             13.420631                     5                10.696
83309440             13.420631                     5                14.957
83309440             13.420631                     5               19.2175
83309440             13.420631                     5               23.4785
83309440             14.644348                     5                 9.986
83309440             14.644348                     5               14.2465
83309440             14.644348                     5               18.5075
83309440             14.644348                     5               22.7685
83309440             13.420631                     5                7.8555
83309440             13.420631                     5               12.1165
83309440             13.420631                     5                16.377
83309440             13.420631                     5                20.638
83309440             12.197085                     5                8.5655
83309440             12.197085                     5               12.8265
83309440             12.197085                     5               17.0875
83309440             12.197085                     5                21.348
83309440             10.973368                     5                10.696
83309440             10.973368                     5                14.957
83309440             10.973368                     5               19.2175
83309440             10.973368                     5               23.4785
83309440             12.197085                     5                 9.986
83309440             12.197085                     5               14.2465
83309440             12.197085                     5               18.5075
83309440             12.197085                     5               22.7685
83309440             10.973368                     5                7.8555
83309440             10.973368                     5               12.1165
83309440             10.973368                     5                16.377
83309440             10.973368                     5                20.638
83309440               9.74965                     5                8.5655
83309440               9.74965                     5               12.8265
83309440               9.74965                     5               17.0875
83309440               9.74965                     5                21.348
83309440              8.525933                     5                10.696
83309440              8.525933                     5                14.957
83309440              8.525933                     5               19.2175
83309440              8.525933                     5               23.4785
83309440               9.74965                     5                 9.986
83309440               9.74965                     5               14.2465
83309440               9.74965                     5               18.5075
83309440               9.74965                     5               22.7685
83309440              8.525933                     5                7.8555
83309440              8.525933                     5               12.1165
83309440              8.525933                     5                16.377
83309440              8.525933                     5                20.638
83309440              7.302216                     5                8.5655
83309440              7.302216                     5               12.8265
83309440              7.302216                     5               17.0875
83309440              7.302216                     5                21.348
83309440              6.078498                     5                10.696
83309440              6.078498                     5                14.957
83309440              6.078498                     5               19.2175
83309440              6.078498                     5               23.4785
83309440              7.302216                     5                 9.986
83309440              7.302216                     5               14.2465
83309440              7.302216                     5               18.5075
83309440              7.302216                     5               22.7685
83309440              6.078498                     5                7.8555
83309440              6.078498                     5               12.1165
83309440              6.078498                     5                16.377
83309440              6.078498                     5                20.638
83309440              4.854781                     5                8.5655
83309440              4.854781                     5               12.8265
83309440              4.854781                     5               17.0875
83309440              4.854781                     5                21.348
83309440              3.631235                     5                10.696
83309440              3.631235                     5                14.957
83309440              3.631235                     5               19.2175
83309440              3.631235                     5               23.4785
83309440              4.854781                     5                 9.986
83309440              4.854781                     5               14.2465
83309440              4.854781                     5               18.5075
83309440              4.854781                     5               22.7685
83309440              3.631235                     5                7.8555
83309440              3.631235                     5               12.1165
83309440              3.631235                     5                16.377
83309440              3.631235                     5                20.638
83309440              2.407518                     5                8.5655
83309440              2.407518                     5               12.8265
83309440              2.407518                     5               17.0875
83309440              2.407518                     5                21.348
83309440                1.1838                     5                10.696
83309440                1.1838                     5                14.957
83309440                1.1838                     5               19.2175
83309440                1.1838                     5               23.4785
83309440              2.407518                     5                 9.986
83309440              2.407518                     5               14.2465
83309440              2.407518                     5               18.5075
83309440              2.407518                     5               22.7685
83309440                1.1838                     5                7.8555
83309440                1.1838                     5               12.1165
83309440                1.1838                     5                16.377
83309440                1.1838                     5                20.638
83309472             15.865667                     5                6.7155
83309472              13.42303                     5                6.7155
83309472             10.975766                     5                6.7155
83309472              8.528332                     5                6.7155
83309472              6.080897                     5                6.7155
83309472              3.633634                     5                6.7155
83309472              1.181402                     5                6.7155
83309472              8.264091              3.011711             26.107226
83309472              8.148484              2.484984             23.617736
83309472             16.274177              7.347998             27.085732
83309472             10.643267              7.039664             24.528237
83309472             16.825521              0.997461              24.37655
83309472             15.154818              8.776901             25.343002
83309472              9.253712              0.816391             24.905597
83309472             14.275969               1.94321                  23.5
83309472             14.897787              5.294008              26.39588
83309472              14.54598              4.546979             27.583237
83309472              8.819387              3.451894             27.098848
83309472             14.394264              6.814699             26.011287
83309472             13.235123              7.468686              28.10234
83309472              5.032072              2.245073             26.654202
83309472              0.044424               4.12209             25.397517
83309472              5.485668              6.439713             24.844199
83309472              5.340692              7.933019             28.019159
83309472               2.00131              9.350199             29.594045
83309472              0.020251               4.86887             32.631706
83309472              3.420923              8.182914               30.0761
83309472             13.055445              8.565268             32.208368
83309472              5.613295              0.655916             28.805973
83309472              3.480838              1.403664             29.644163
83309472              8.548086               3.21859             31.187712
83309472             15.568965              5.227771             31.499626
83309472             15.855348              8.786447             28.581568
83309472              9.366203              7.817647             30.130902
83309472              8.190425              5.912202             31.431077
83309440              6.876161              6.792132                  23.5
83309440              5.999518              8.656664             24.072463
83309440             16.224316              7.006048                  23.5
83309440             13.102684              7.556088             24.821385
83309440              9.433983              8.401176             23.829271
83309440              7.997724              7.711659                  23.5
83309440             16.764587              7.238828             24.841607
83309440             11.261068              1.031598             25.073539
83309440             12.387161               5.47502             23.900262
83309440              9.392737              7.824714             23.545064
83309440              1.921607              0.423284                  23.5
83309440              8.256576              5.072635             29.720385
83309440             13.902808              3.286093             28.636252
83309440              0.499319                5.6369             26.279822
83309440             11.580768              6.098371             28.049829
83309440             12.666752               8.97546             28.845478
83309440             15.952506              1.104244             27.440351
83309440             10.690845              7.004456             27.019869
83309440              2.111224              0.173718             27.457424
83309440              2.132188               0.92359             28.513549
83309440              2.133103              9.763886             25.443061
83309440              7.697642              0.650015               25.4929
83309440             10.722459              9.150161              31.50072
83309440              2.239333              3.761432             32.547489
83309440              8.350989              4.206088             32.317993
83309440              1.106187              2.800214             30.046943
83309440               9.20705              0.882353                    33
83309440             14.622264              5.116868             28.688038
83309440              7.869442              5.228685             30.435659
83309440             13.657727              4.078526             30.491666
83309440             10.481272              1.788723             28.554344
83309440             12.061407              4.650787             30.965506
83309440              15.48085              8.486137             31.481445
300
Atoms. Timestep: 10
83309472      2.29737907631339                     5      34.3132037033521
83309472      2.29737907631339                     5      36.7732037033521
83309472      2.29737907631339                     5      39.2332037033521
83309472      2.29737907631339                     5      41.6932037033521
83309472      2.29737907631339                     5      44.1532037033521
83309472      2.29737907631339                     5      46.6132037033521
83309472      2.29737907631339                     5      49.0732037033521
83309472      4.43884207631339                     5      33.0832037033521
83309472      4.43884207631339                     5      35.5432037033521
83309472      4.43884207631339                     5      38.0032037033521
83309472      4.43884207631339                     5      40.4632037033521
83309472      4.43884207631339                     5      42.9232037033521
83309472      4.43884207631339                     5      45.3832037033521
83309472      4.43884207631339                     5      47.8432037033521
83309472      3.72513507631339                     5      34.3132037033521
83309472      3.72513507631339                     5      36.7732037033521
83309472      3.72513507631339                     5      39.2332037033521
83309472      3.72513507631339                     5      41.6932037033521
83309472      3.72513507631339                     5      44.1532037033521
83309472      3.72513507631339                     5      46.6132037033521
83309472      3.72513507631339                     5      49.0732037033521
83309472      5.86659807631339                     5      33.0832037033521
83309472      5.86659807631339                     5      35.5432037033521
83309472      5.86659807631339                     5      38.0032037033521
83309472      5.86659807631339                     5      40.4632037033521
83309472      5.86659807631339                     5      42.9232037033521
83309472      5.86659807631339                     5      45.3832037033521
83309472      5.86659807631339                     5      47.8432037033521
83309472      6.58030407631339                     5      34.3132037033521
83309472      6.58030407631339                     5      36.7732037033521
83309440      6.58030407631339                     5      39.2332037033521
83309440      6.58030407631339                     5      41.6932037033521
83309440      6.58030407631339                     5      44.1532037033521
83309440      6.58030407631339                     5      46.6132037033521
83309440      6.58030407631339                     5      49.0732037033521
83309440      8.72176707631339                     5      33.0832037033521
83309440      8.72176707631339                     5      35.5432037033521
83309440      8.72176707631339                     5      38.0032037033521
83309440      8.72176707631339                     5      40.4632037033521
83309440      8.72176707631339                     5      42.9232037033521
83309440      8.72176707631339                     5      45.3832037033521
83309440      8.72176707631339                     5      47.8432037033521
83309440      8.00806007631339                     5      34.3132037033521
83309440      8.00806007631339                     5      36.7732037033521
83309440      8.00806007631339                     5      39.2332037033521
83309440      8.00806007631339                     5      41.6932037033521
83309440      8.00806007631339                     5      44.1532037033521
83309440      8.00806007631339                     5      46.6132037033521
83309440      8.00806007631339                     5      49.0732037033521
83309440      10.1495230763134                     5      33.0832037033521
83309440      10.1495230763134                     5      35.5432037033521
83309440      10.1495230763134                     5      38.0032037033521
83309440      10.1495230763134                     5      40.4632037033521
83309440      10.1495230763134                     5      42.9232037033521
83309440      10.1495230763134                     5      45.3832037033521
83309440      10.1495230763134                     5      47.8432037033521
83309440      10.8632290763134                     5      34.3132037033521
83309440      10.8632290763134                     5      36.7732037033521
83309440      10.8632290763134                     5      39.2332037033521
83309440      10.8632290763134                     5      41.6932037033521
83309440      10.8632290763134                     5      44.1532037033521
83309440      10.8632290763134                     5      46.6132037033521
83309440      10.8632290763134                     5      49.0732037033521
83309440      13.0046920763134                     5      33.0832037033521
83309440      13.0046920763134                     5      35.5432037033521
83309440      13.0046920763134                     5      38.0032037033521
83309440      13.0046920763134                     5      40.4632037033521
83309440      13.0046920763134                     5      42.9232037033521
83309440      13.0046920763134                     5      45.3832037033521
83309440      13.0046920763134                     5      47.8432037033521
83309440      12.2909850763134                     5      34.3132037033521
83309440      12.2909850763134                     5      36.7732037033521
83309440      12.2909850763134                     5      39.2332037033521
83309440      12.2909850763134                     5      41.6932037033521
83309440      12.2909850763134                     5      44.1532037033521
83309440      12.2909850763134                     5      46.6132037033521
83309440      12.2909850763134                     5      49.0732037033521
83309440      14.4324480763134                     5      33.0832037033521
83309440      14.4324480763134                     5      35.5432037033521
83309440      14.4324480763134                     5      38.0032037033521
83309440      14.4324480763134                     5      40.4632037033521
83309440      14.4324480763134                     5      42.9232037033521
83309440      14.4324480763134                     5      45.3832037033521
83309440      14.4324480763134                     5      47.8432037033521
83309440      15.1461540763134                     5      34.3132037033521
83309440      15.1461540763134                     5      36.7732037033521
83309440      15.1461540763134                     5      39.2332037033521
83309440      15.1461540763134                     5      41.6932037033521
83309440      15.1461540763134                     5      44.1532037033521
83309440      15.1461540763134                     5      46.6132037033521
83309440      15.1461540763134                     5      49.0732037033521
83309440      0.15591707631339                     5      33.0832037033521
83309440      0.15591707631339                     5      35.5432037033521
83309440      0.15591707631339                     5      38.0032037033521
83309440      0.15591707631339                     5      40.4632037033521
83309440      0.15591707631339                     5      42.9232037033521
83309440      0.15591707631339                     5      45.3832037033521
83309440      0.15591707631339                     5      47.8432037033521
83309440      16.5739100763134                     5      34.3132037033521