search structure

300 atoms
2  atom types

0   17.131700 xlo xhi
0   10.000000 ylo yhi
0   50.000000 zlo zhi

Atoms

1 2 2.293429 5.000000 34.306500
2 2 2.293429 5.000000 36.766500
3 2 2.293429 5.000000 39.226500
4 2 2.293429 5.000000 41.686500
5 2 2.293429 5.000000 44.146500
6 2 2.293429 5.000000 46.606500
7 2 2.293429 5.000000 49.066500
8 2 4.434892 5.000000 33.076500
9 2 4.434892 5.000000 35.536500
10 2 4.434892 5.000000 37.996500
11 2 4.434892 5.000000 40.456500
12 2 4.434892 5.000000 42.916500
13 2 4.434892 5.000000 45.376500
14 2 4.434892 5.000000 47.836500
15 2 3.721185 5.000000 34.306500
16 2 3.721185 5.000000 36.766500
17 2 3.721185 5.000000 39.226500
18 2 3.721185 5.000000 41.686500
19 2 3.721185 5.000000 44.146500
20 2 3.721185 5.000000 46.606500
21 2 3.721185 5.000000 49.066500
22 2 5.862648 5.000000 33.076500
23 2 5.862648 5.000000 35.536500
24 2 5.862648 5.000000 37.996500
25 2 5.862648 5.000000 40.456500
26 2 5.862648 5.000000 42.916500
27 2 5.862648 5.000000 45.376500
28 2 5.862648 5.000000 47.836500
29 2 6.576354 5.000000 34.306500
30 2 6.576354 5.000000 36.766500
31 1 6.576354 5.000000 39.226500
32 1 6.576354 5.000000 41.686500
33 1 6.576354 5.000000 44.146500
34 1 6.576354 5.000000 46.606500
35 1 6.576354 5.000000 49.066500
36 1 8.717817 5.000000 33.076500
37 1 8.717817 5.000000 35.536500
38 1 8.717817 5.000000 37.996500
39 1 8.717817 5.000000 40.456500
40 1 8.717817 5.000000 42.916500
41 1 8.717817 5.000000 45.376500
42 1 8.717817 5.000000 47.836500
43 1 8.004110 5.000000 34.306500
44 1 8.004110 5.000000 36.766500
45 1 8.004110 5.000000 39.226500
46 1 8.004110 5.000000 41.686500
47 1 8.004110 5.000000 44.146500
48 1 8.004110 5.000000 46.606500
49 1 8.004110 5.000000 49.066500
50 1 10.145573 5.000000 33.076500
51 1 10.145573 5.000000 35.536500
52 1 10.145573 5.000000 37.996500
53 1 10.145573 5.000000 40.456500
54 1 10.145573 5.000000 42.916500
55 1 10.145573 5.000000 45.376500
56 1 10.145573 5.000000 47.836500
57 1 10.859279 5.000000 34.306500
58 1 10.859279 5.000000 36.766500
59 1 10.859279 5.000000 39.226500
60 1 10.859279 5.000000 41.686500
61 1 10.859279 5.000000 44.146500
62 1 10.859279 5.000000 46.606500
63 1 10.859279 5.000000 49.066500
64 1 13.000742 5.000000 33.076500
65 1 13.000742 5.000000 35.536500
66 1 13.000742 5.000000 37.996500
67 1 13.000742 5.000000 40.456500
68 1 13.000742 5.000000 42.916500
69 1 13.000742 5.000000 45.376500
70 1 13.000742 5.000000 47.836500
71 1 12.287035 5.000000 34.306500
72 1 12.287035 5.000000 36.766500
73 1 12.287035 5.000000 39.226500
74 1 12.287035 5.000000 41.686500
75 1 12.287035 5.000000 44.146500
76 1 12.287035 5.000000 46.606500
77 1 12.287035 5.000000 49.066500
78 1 14.428498 5.000000 33.076500
79 1 14.428498 5.000000 35.536500
80 1 14.428498 5.000000 37.996500
81 1 14.428498 5.000000 40.456500
82 1 14.428498 5.000000 42.916500
83 1 14.428498 5.000000 45.376500
84 1 14.428498 5.000000 47.836500
85 1 15.142204 5.000000 34.306500
86 1 15.142204 5.000000 36.766500
87 1 15.142204 5.000000 39.226500
88 1 15.142204 5.000000 41.686500
89 1 15.142204 5.000000 44.146500
90 1 15.142204 5.000000 46.606500
91 1 15.142204 5.000000 49.066500
92 1 0.151967 5.000000 33.076500
93 1 0.151967 5.000000 35.536500
94 1 0.151967 5.000000 37.996500
95 1 0.151967 5.000000 40.456500
96 1 0.151967 5.000000 42.916500
97 1 0.151967 5.000000 45.376500
98 1 0.151967 5.000000 47.836500
99 1 16.569960 5.000000 34.306500
100 1 16.569960 5.000000 36.766500
101 1 16.569960 5.000000 39.226500
102 1 16.569960 5.000000 41.686500
103 1 16.569960 5.000000 44.146500
104 1 16.569960 5.000000 46.606500
105 1 16.569960 5.000000 49.066500
106 1 1.579723 5.000000 33.076500
107 1 1.579723 5.000000 35.536500
108 1 1.579723 5.000000 37.996500
109 1 1.579723 5.000000 40.456500
110 1 1.579723 5.000000 42.916500
111 1 1.579723 5.000000 45.376500
112 1 1.579723 5.000000 47.836500
113 2 1.723287 5.000000 50.054000
114 2 4.291157 5.000000 50.054000
115 2 6.008439 5.000000 50.055000
116 2 8.574082 5.000000 50.054000
117 2 10.291364 5.000000 50.055000
118 2 12.857007 5.000000 50.054000
119 2 14.574289 5.000000 50.055000
120 2 0.008232 5.000000 50.054000
121 1 -0.039917 5.000000 8.565500
122 1 -0.039917 5.000000 12.826500
123 1 -0.039917 5.000000 17.087500
124 1 -0.039917 5.000000 21.348000
125 1 -0.039917 5.000000 9.986000
126 1 -0.039917 5.000000 14.246500
127 1 -0.039917 5.000000 18.507500
128 1 -0.039917 5.000000 22.768500
129 1 15.868066 5.000000 10.696000
130 1 15.868066 5.000000 14.957000
131 1 15.868066 5.000000 19.217500
132 1 15.868066 5.000000 23.478500
133 1 15.868066 5.000000 7.855500
134 1 15.868066 5.000000 12.116500
135 1 15.868066 5.000000 16.377000
136 1 15.868066 5.000000 20.638000
137 1 14.644348 5.000000 8.565500
138 1 14.644348 5.000000 12.826500
139 1 14.644348 5.000000 17.087500
140 1 14.644348 5.000000 21.348000
141 1 13.420631 5.000000 10.696000
142 1 13.420631 5.000000 14.957000
143 1 13.420631 5.000000 19.217500
144 1 13.420631 5.000000 23.478500
145 1 14.644348 5.000000 9.986000
146 1 14.644348 5.000000 14.246500
147 1 14.644348 5.000000 18.507500
148 1 14.644348 5.000000 22.768500
149 1 13.420631 5.000000 7.855500
150 1 13.420631 5.000000 12.116500
151 1 13.420631 5.000000 16.377000
152 1 13.420631 5.000000 20.638000
153 1 12.197085 5.000000 8.565500
154 1 12.197085 5.000000 12.826500
155 1 12.197085 5.000000 17.087500
156 1 12.197085 5.000000 21.348000
157 1 10.973368 5.000000 10.696000
158 1 10.973368 5.000000 14.957000
159 1 10.973368 5.000000 19.217500
160 1 10.973368 5.000000 23.478500
161 1 12.197085 5.000000 9.986000
162 1 12.197085 5.000000 14.246500
163 1 12.197085 5.000000 18.507500
164 1 12.197085 5.000000 22.768500
165 1 10.973368 5.000000 7.855500
166 1 10.973368 5.000000 12.116500
167 1 10.973368 5.000000 16.377000
168 1 10.973368 5.000000 20.638000
169 1 9.749650 5.000000 8.565500
170 1 9.749650 5.000000 12.826500
171 1 9.749650 5.000000 17.087500
172 1 9.749650 5.000000 21.348000
173 1 8.525933 5.000000 10.696000
174 1 8.525933 5.000000 14.957000
175 1 8.525933 5.000000 19.217500
176 1 8.525933 5.000000 23.478500
177 1 9.749650 5.000000 9.986000
178 1 9.749650 5.000000 14.246500
179 1 9.749650 5.000000 18.507500
180 1 9.749650 5.000000 22.768500
181 1 8.525933 5.000000 7.855500
182 1 8.525933 5.000000 12.116500
183 1 8.525933 5.000000 16.377000
184 1 8.525933 5.000000 20.638000
185 1 7.302216 5.000000 8.565500
186 1 7.302216 5.000000 12.826500
187 1 7.302216 5.000000 17.087500
188 1 7.302216 5.000000 21.348000
189 1 6.078498 5.000000 10.696000
190 1 6.078498 5.000000 14.957000
191 1 6.078498 5.000000 19.217500
192 1 6.078498 5.000000 23.478500
193 1 7.302216 5.000000 9.986000
194 1 7.302216 5.000000 14.246500
195 1 7.302216 5.000000 18.507500
196 1 7.302216 5.000000 22.768500
197 1 6.078498 5.000000 7.855500
198 1 6.078498 5.000000 12.116500
199 1 6.078498 5.000000 16.377000
200 1 6.078498 5.000000 20.638000
201 1 4.854781 5.000000 8.565500
202 1 4.854781 5.000000 12.826500
203 1 4.854781 5.000000 17.087500
204 1 4.854781 5.000000 21.348000
205 1 3.631235 5.000000 10.696000
206 1 3.631235 5.000000 14.957000
207 1 3.631235 5.000000 19.217500
208 1 3.631235 5.000000 23.478500
209 1 4.854781 5.000000 9.986000
210 1 4.854781 5.000000 14.246500
211 1 4.854781 5.000000 18.507500
212 1 4.854781 5.000000 22.768500
213 1 3.631235 5.000000 7.855500
214 1 3.631235 5.000000 12.116500
215 1 3.631235 5.000000 16.377000
216 1 3.631235 5.000000 20.638000
217 1 2.407518 5.000000 8.565500
218 1 2.407518 5.000000 12.826500
219 1 2.407518 5.000000 17.087500
220 1 2.407518 5.000000 21.348000
221 1 1.183800 5.000000 10.696000
222 1 1.183800 5.000000 14.957000
223 1 1.183800 5.000000 19.217500
224 1 1.183800 5.000000 23.478500
225 1 2.407518 5.000000 9.986000
226 1 2.407518 5.000000 14.246500
227 1 2.407518 5.000000 18.507500
228 1 2.407518 5.000000 22.768500
229 1 1.183800 5.000000 7.855500
230 1 1.183800 5.000000 12.116500
231 1 1.183800 5.000000 16.377000
232 1 1.183800 5.000000 20.638000
233 2 15.865667 5.000000 6.715500
234 2 13.423030 5.000000 6.715500
235 2 10.975766 5.000000 6.715500
236 2 8.528332 5.000000 6.715500
237 2 6.080897 5.000000 6.715500
238 2 3.633634 5.000000 6.715500
239 2 1.181402 5.000000 6.715500
240 2 8.264091 3.011711 26.107226
241 2 8.148484 2.484984 23.617736
242 2 16.274177 7.347998 27.085732
243 2 10.643267 7.039664 24.528237
244 2 16.825521 0.997461 24.376550
245 2 15.154818 8.776901 25.343002
246 2 9.253712 0.816391 24.905597
247 2 14.275969 1.943210 23.500000
248 2 14.897787 5.294008 26.395880
249 2 14.545980 4.546979 27.583237
250 2 8.819387 3.451894 27.098848
251 2 14.394264 6.814699 26.011287
252 2 13.235123 7.468686 28.102340
253 2 5.032072 2.245073 26.654202
254 2 0.044424 4.122090 25.397517
255 2 5.485668 6.439713 24.844199
256 2 5.340692 7.933019 28.019159
257 2 2.001310 9.350199 29.594045
258 2 0.020251 4.868870 32.631706
259 2 3.420923 8.182914 30.076100
260 2 13.055445 8.565268 32.208368
261 2 5.613295 0.655916 28.805973
262 2 3.480838 1.403664 29.644163
263 2 8.548086 3.218590 31.187712
264 2 15.568965 5.227771 31.499626
265 2 15.855348 8.786447 28.581568
266 2 9.366203 7.817647 30.130902
267 2 8.190425 5.912202 31.431077
268 1 6.876161 6.792132 23.500000
269 1 5.999518 8.656664 24.072463
270 1 16.224316 7.006048 23.500000
271 1 13.102684 7.556088 24.821385
272 1 9.433983 8.401176 23.829271
273 1 7.997724 7.711659 23.500000
274 1 16.764587 7.238828 24.841607
275 1 11.261068 1.031598 25.073539
276 1 12.387161 5.475020 23.900262
277 1 9.392737 7.824714 23.545064
278 1 1.921607 0.423284 23.500000
279 1 8.256576 5.072635 29.720385
280 1 13.902808 3.286093 28.636252
281 1 0.499319 5.636900 26.279822
282 1 11.580768 6.098371 28.049829
283 1 12.666752 8.975460 28.845478
284 1 15.952506 1.104244 27.440351
285 1 10.690845 7.004456 27.019869
286 1 2.111224 0.173718 27.457424
287 1 2.132188 0.923590 28.513549
288 1 2.133103 9.763886 25.443061
289 1 7.697642 0.650015 25.492900
290 1 10.722459 9.150161 31.500720
291 1 2.239333 3.761432 32.547489
292 1 8.350989 4.206088 32.317993
293 1 1.106187 2.800214 30.046943
294 1 9.207050 0.882353 33.000000
295 1 14.622264 5.116868 28.688038
296 1 7.869442 5.228685 30.435659
297 1 13.657727 4.078526 30.491666
298 1 10.481272 1.788723 28.554344
299 1 12.061407 4.650787 30.965506
300 1 15.480850 8.486137 31.481445
