300
Atoms. Timestep: 0
143504288              4.331347                     5               34.3065
143504288              4.331347                     5               36.7665
143504288              4.331347                     5               39.2265
143504288              4.331347                     5               41.6865
143504288              4.331347                     5               44.1465
143504288              4.331347                     5               46.6065
143504288              4.331347                     5               49.0665
143504288              6.472809                     5               33.0765
143504288              6.472809                     5               35.5365
143504288              6.472809                     5               37.9965
143504288              6.472809                     5               40.4565
143504288              6.472809                     5               42.9165
143504288              6.472809                     5               45.3765
143504288              6.472809                     5               47.8365
143504288              5.759103                     5               34.3065
143504288              5.759103                     5               36.7665
143504288              5.759103                     5               39.2265
143504288              5.759103                     5               41.6865
143504288              5.759103                     5               44.1465
143504288              5.759103                     5               46.6065
143504288              5.759103                     5               49.0665
143504288              7.900565                     5               33.0765
143504288              7.900565                     5               35.5365
143504288              7.900565                     5               37.9965
143504288              7.900565                     5               40.4565
143504288              7.900565                     5               42.9165
143504288              7.900565                     5               45.3765
143504288              7.900565                     5               47.8365
143504288              8.614272                     5               34.3065
143504288              8.614272                     5               36.7665
143504256              8.614272                     5               39.2265
143504256              8.614272                     5               41.6865
143504256              8.614272                     5               44.1465
143504256              8.614272                     5               46.6065
143504256              8.614272                     5               49.0665
143504256             10.755734                     5               33.0765
143504256             10.755734                     5               35.5365
143504256             10.755734                     5               37.9965
143504256             10.755734                     5               40.4565
143504256             10.755734                     5               42.9165
143504256             10.755734                     5               45.3765
143504256             10.755734                     5               47.8365
143504256             10.042028                     5               34.3065
143504256             10.042028                     5               36.7665
143504256             10.042028                     5               39.2265
143504256             10.042028                     5               41.6865
143504256             10.042028                     5               44.1465
143504256             10.042028                     5               46.6065
143504256             10.042028                     5               49.0665
143504256              12.18349                     5               33.0765
143504256              12.18349                     5               35.5365
143504256              12.18349                     5               37.9965
143504256              12.18349                     5               40.4565
143504256              12.18349                     5               42.9165
143504256              12.18349                     5               45.3765
143504256              12.18349                     5               47.8365
143504256             12.897197                     5               34.3065
143504256             12.897197                     5               36.7665
143504256             12.897197                     5               39.2265
143504256             12.897197                     5               41.6865
143504256             12.897197                     5               44.1465
143504256             12.897197                     5               46.6065
143504256             12.897197                     5               49.0665
143504256             15.038659                     5               33.0765
143504256             15.038659                     5               35.5365
143504256             15.038659                     5               37.9965
143504256             15.038659                     5               40.4565
143504256             15.038659                     5               42.9165
143504256             15.038659                     5               45.3765
143504256             15.038659                     5               47.8365
143504256             14.324953                     5               34.3065
143504256             14.324953                     5               36.7665
143504256             14.324953                     5               39.2265
143504256             14.324953                     5               41.6865
143504256             14.324953                     5               44.1465
143504256             14.324953                     5               46.6065
143504256             14.324953                     5               49.0665
143504256             16.466415                     5               33.0765
143504256             16.466415                     5               35.5365
143504256             16.466415                     5               37.9965
143504256             16.466415                     5               40.4565
143504256             16.466415                     5               42.9165
143504256             16.466415                     5               45.3765
143504256             16.466415                     5               47.8365
143504256              0.048422                     5               34.3065
143504256              0.048422                     5               36.7665
143504256              0.048422                     5               39.2265
143504256              0.048422                     5               41.6865
143504256              0.048422                     5               44.1465
143504256              0.048422                     5               46.6065
143504256              0.048422                     5               49.0665
143504256              2.189884                     5               33.0765
143504256              2.189884                     5               35.5365
143504256              2.189884                     5               37.9965
143504256              2.189884                     5               40.4565
143504256              2.189884                     5               42.9165
143504256              2.189884                     5               45.3765
143504256              2.189884                     5               47.8365
143504256              1.476178                     5               34.3065
143504256              1.476178                     5               36.7665
143504256              1.476178                     5               39.2265
143504256              1.476178                     5               41.6865
143504256              1.476178                     5               44.1465
143504256              1.476178                     5               46.6065
143504256              1.476178                     5               49.0665
143504256               3.61764                     5               33.0765
143504256               3.61764                     5               35.5365
143504256               3.61764                     5               37.9965
143504256               3.61764                     5               40.4565
143504256               3.61764                     5               42.9165
143504256               3.61764                     5               45.3765
143504256               3.61764                     5               47.8365
143504288              3.761204                     5     0.054000000000002
143504288              6.329075                     5     0.054000000000002
143504288              8.046356                     5    0.0549999999999997
143504288                10.612                     5     0.054000000000002
143504288             12.329281                     5    0.0549999999999997
143504288             14.894925                     5     0.054000000000002
143504288             16.612206                     5    0.0549999999999997
143504288               2.04615                     5     0.054000000000002
143504256             17.091783                     5                8.5655
143504256             17.091783                     5               12.8265
143504256             17.091783                     5               17.0875
143504256             17.091783                     5                21.348
143504256             17.091783                     5                 9.986
143504256             17.091783                     5               14.2465
143504256             17.091783                     5               18.5075
143504256             17.091783                     5               22.7685
143504256             15.868066                     5                10.696
143504256             15.868066                     5                14.957
143504256             15.868066                     5               19.2175
143504256             15.868066                     5               23.4785
143504256             15.868066                     5                7.8555
143504256             15.868066                     5               12.1165
143504256             15.868066                     5                16.377
143504256             15.868066                     5                20.638
143504256             14.644348                     5                8.5655
143504256             14.644348                     5               12.8265
143504256             14.644348                     5               17.0875
143504256             14.644348                     5                21.348
143504256             13.420631                     5                10.696
143504256             13.420631                     5                14.957
143504256             13.420631                     5               19.2175
143504256             13.420631                     5               23.4785
143504256             14.644348                     5                 9.986
143504256             14.644348                     5               14.2465
143504256             14.644348                     5               18.5075
143504256             14.644348                     5               22.7685
143504256             13.420631                     5                7.8555
143504256             13.420631                     5               12.1165
143504256             13.420631                     5                16.377
143504256             13.420631                     5                20.638
143504256             12.197085                     5                8.5655
143504256             12.197085                     5               12.8265
143504256             12.197085                     5               17.0875
143504256             12.197085                     5                21.348
143504256             10.973368                     5                10.696
143504256             10.973368                     5                14.957
143504256             10.973368                     5               19.2175
143504256             10.973368                     5               23.4785
143504256             12.197085                     5                 9.986
143504256             12.197085                     5               14.2465
143504256             12.197085                     5               18.5075
143504256             12.197085                     5               22.7685
143504256             10.973368                     5                7.8555
143504256             10.973368                     5               12.1165
143504256             10.973368                     5                16.377
143504256             10.973368                     5                20.638
143504256               9.74965                     5                8.5655
143504256               9.74965                     5               12.8265
143504256               9.74965                     5               17.0875
143504256               9.74965                     5                21.348
143504256              8.525933                     5                10.696
143504256              8.525933                     5                14.957
143504256              8.525933                     5               19.2175
143504256              8.525933                     5               23.4785
143504256               9.74965                     5                 9.986
143504256               9.74965                     5               14.2465
143504256               9.74965                     5               18.5075
143504256               9.74965                     5               22.7685
143504256              8.525933                     5                7.8555
143504256              8.525933                     5               12.1165
143504256              8.525933                     5                16.377
143504256              8.525933                     5                20.638
143504256              7.302216                     5                8.5655
143504256              7.302216                     5               12.8265
143504256              7.302216                     5               17.0875
143504256              7.302216                     5                21.348
143504256              6.078498                     5                10.696
143504256              6.078498                     5                14.957
143504256              6.078498                     5               19.2175
143504256              6.078498                     5               23.4785
143504256              7.302216                     5                 9.986
143504256              7.302216                     5               14.2465
143504256              7.302216                     5               18.5075
143504256              7.302216                     5               22.7685
143504256              6.078498                     5                7.8555
143504256              6.078498                     5               12.1165
143504256              6.078498                     5                16.377
143504256              6.078498                     5                20.638
143504256              4.854781                     5                8.5655
143504256              4.854781                     5               12.8265
143504256              4.854781                     5               17.0875
143504256              4.854781                     5                21.348
143504256              3.631235                     5                10.696
143504256              3.631235                     5                14.957
143504256              3.631235                     5               19.2175
143504256              3.631235                     5               23.4785
143504256              4.854781                     5                 9.986
143504256              4.854781                     5               14.2465
143504256              4.854781                     5               18.5075
143504256              4.854781                     5               22.7685
143504256              3.631235                     5                7.8555
143504256              3.631235                     5               12.1165
143504256              3.631235                     5                16.377
143504256              3.631235                     5                20.638
143504256              2.407518                     5                8.5655
143504256              2.407518                     5               12.8265
143504256              2.407518                     5               17.0875
143504256              2.407518                     5                21.348
143504256                1.1838                     5                10.696
143504256                1.1838                     5                14.957
143504256                1.1838                     5               19.2175
143504256                1.1838                     5               23.4785
143504256              2.407518                     5                 9.986
143504256              2.407518                     5               14.2465
143504256              2.407518                     5               18.5075
143504256              2.407518                     5               22.7685
143504256                1.1838                     5                7.8555
143504256                1.1838                     5               12.1165
143504256                1.1838                     5                16.377
143504256                1.1838                     5                20.638
143504288             15.865667                     5                6.7155
143504288              13.42303                     5                6.7155
143504288             10.975766                     5                6.7155
143504288              8.528332                     5                6.7155
143504288              6.080897                     5                6.7155
143504288              3.633634                     5                6.7155
143504288              1.181402                     5                6.7155
143504288              5.908303              0.169429                  23.5
143504288             13.033209              2.838781             25.709404
143504288              7.975877              8.686651                  23.5
143504288              5.133734              0.328921             26.152494
143504288              4.256091              8.966004                  23.5
143504288              5.848338              9.251306             25.950204
143504288              11.72958              3.718185                  23.5
143504288              15.06515              9.400116             24.379366
143504288              1.044739              0.592717             24.663076
143504288              6.504809               8.76346             23.755251
143504288              2.680282              7.598215             25.342103
143504288             14.892971              0.553066             26.429179
143504288              4.971952              3.032524             25.407097
143504288              3.096605              3.112685             25.928198
143504288             12.909195              8.386133             27.041878
143504288               3.47384              4.723615             24.556771
143504288             13.120713              6.521943             25.927725
143504288             13.339552              9.932709             26.404219
143504288              5.375562              9.252145             30.816779
143504288             16.193812              4.985718              27.13417
143504288              7.249096              6.679266             26.022345
143504288             15.777002              7.106525             31.751411
143504288              4.512224              8.436716             29.932673
143504288              2.089543              5.970938                    33
143504288             13.129512              6.973828             32.973937
143504288             10.475055              6.009437             28.944385
143504288              9.551711              6.566887             26.461257
143504288             14.335851              8.929828             26.866915
143504256              4.210962              5.534262             24.906928
143504256              5.622575              0.528066             25.954595
143504256              0.498702              9.922375             27.887832
143504256              9.065085              2.619224             27.022774
143504256              9.264027              2.686659             25.661067
143504256             15.718139              4.704474             25.074993
143504256              3.560095              0.110045             26.951213
143504256             15.469144              1.223159             24.763754
143504256             14.593092              9.630271             23.804958
143504256              5.248342              1.998788              24.36674
143504256              7.794651              9.030689             25.419825
143504256              8.190243              9.258058             24.251756
143504256              6.415035              9.333071             24.187777
143504256             10.819543              0.621458             25.623399
143504256              9.343014              5.261258             30.673208
143504256              8.113067              7.543806             28.151268
143504256              16.34135              7.789883             26.765904
143504256             14.759643              9.572424             30.582257
143504256             10.432846              6.191578             26.705546
143504256              10.22127               8.96996             26.850602
143504256              7.307744               0.35765             25.995996
143504256              8.135993              0.363469             31.776096
143504256             15.121861               5.96194             32.814415
143504256              5.246325              2.296341             32.037927
143504256              2.392644              2.565338             30.041357
143504256              4.672413              2.630926             32.035157
143504256               0.04116               9.40293             28.009822
143504256             14.782924              6.718085             30.441247
143504256             14.375917              3.753961             31.517831
143504256             16.369426              8.611975             29.845995
143504256                5.3746              0.031542                    33
143504256              1.108528              9.069549                    33
143504256             10.852194              0.352349                    33
300
Atoms. Timestep: 10
143504288      4.32970507920614                     5      34.3133090961065
143504288      4.32970507920614                     5      36.7733090961065
143504288      4.32970507920614                     5      39.2333090961065
143504288      4.32970507920614                     5      41.6933090961065
143504288      4.32970507920614                     5      44.1533090961065
143504288      4.32970507920614                     5      46.6133090961065
143504288      4.32970507920614                     5      49.0733090961065
143504288      6.47116707920614                     5      33.0833090961065
143504288      6.47116707920614                     5      35.5433090961065
143504288      6.47116707920614                     5      38.0033090961065
143504288      6.47116707920614                     5      40.4633090961065
143504288      6.47116707920614                     5      42.9233090961065
143504288      6.47116707920614                     5      45.3833090961065
143504288      6.47116707920614                     5      47.8433090961065
143504288      5.75746107920614                     5      34.3133090961065
143504288      5.75746107920614                     5      36.7733090961065
143504288      5.75746107920614                     5      39.2333090961065
143504288      5.75746107920614                     5      41.6933090961065
143504288      5.75746107920614                     5      44.1533090961065
143504288      5.75746107920614                     5      46.6133090961065
143504288      5.75746107920614                     5      49.0733090961065
143504288      7.89892307920614                     5      33.0833090961065
143504288      7.89892307920614                     5      35.5433090961065
143504288      7.89892307920614                     5      38.0033090961065
143504288      7.89892307920614                     5      40.4633090961065
143504288      7.89892307920614                     5      42.9233090961065
143504288      7.89892307920614                     5      45.3833090961065
143504288      7.89892307920614                     5      47.8433090961065
143504288      8.61263007920614                     5      34.3133090961065
143504288      8.61263007920614                     5      36.7733090961065
143504256      8.61263007920614                     5      39.2333090961065
143504256      8.61263007920614                     5      41.6933090961065
143504256      8.61263007920614                     5      44.1533090961065
143504256      8.61263007920614                     5      46.6133090961065
143504256      8.61263007920614                     5      49.0733090961065
143504256      10.7540920792061                     5      33.0833090961065
143504256      10.7540920792061                     5      35.5433090961065
143504256      10.7540920792061                     5      38.0033090961065
143504256      10.7540920792061                     5      40.4633090961065
143504256      10.7540920792061                     5      42.9233090961065
143504256      10.7540920792061                     5      45.3833090961065
143504256      10.7540920792061                     5      47.8433090961065
143504256      10.0403860792061                     5      34.3133090961065
143504256      10.0403860792061                     5      36.7733090961065
143504256      10.0403860792061                     5      39.2333090961065
143504256      10.0403860792061                     5      41.6933090961065
143504256      10.0403860792061                     5      44.1533090961065
143504256      10.0403860792061                     5      46.6133090961065
143504256      10.0403860792061                     5      49.0733090961065
143504256      12.1818480792061                     5      33.0833090961065
143504256      12.1818480792061                     5      35.5433090961065
143504256      12.1818480792061                     5      38.0033090961065
143504256      12.1818480792061                     5      40.4633090961065
143504256      12.1818480792061                     5      42.9233090961065
143504256      12.1818480792061                     5      45.3833090961065
143504256      12.1818480792061                     5      47.8433090961065
143504256      12.8955550792061                     5      34.3133090961065
143504256      12.8955550792061                     5      36.7733090961065
143504256      12.8955550792061                     5      39.2333090961065
143504256      12.8955550792061                     5      41.6933090961065
143504256      12.8955550792061                     5      44.1533090961065
143504256      12.8955550792061                     5      46.6133090961065
143504256      12.8955550792061                     5      49.0733090961065
143504256      15.0370170792061                     5      33.0833090961065
143504256      15.0370170792061                     5      35.5433090961065
143504256      15.0370170792061                     5      38.0033090961065
143504256      15.0370170792061                     5      40.4633090961065
143504256      15.0370170792061                     5      42.9233090961065
143504256      15.0370170792061                     5      45.3833090961065
143504256      15.0370170792061                     5      47.8433090961065
143504256      14.3233110792061                     5      34.3133090961065
143504256      14.3233110792061                     5      36.7733090961065
143504256      14.3233110792061                     5      39.2333090961065
143504256      14.3233110792061                     5      41.6933090961065
143504256      14.3233110792061                     5      44.1533090961065
143504256      14.3233110792061                     5      46.6133090961065
143504256      14.3233110792061                     5      49.0733090961065
143504256      16.4647730792061                     5      33.0833090961065
143504256      16.4647730792061                     5      35.5433090961065
143504256      16.4647730792061                     5      38.0033090961065
143504256      16.4647730792061                     5      40.4633090961065
143504256      16.4647730792061                     5      42.9233090961065
143504256      16.4647730792061                     5      45.3833090961065
143504256      16.4647730792061                     5      47.8433090961065
143504256    0.0467800792061389                     5      34.3133090961065
143504256    0.0467800792061389                     5      36.7733090961065
143504256    0.0467800792061389                     5      39.2333090961065
143504256    0.0467800792061389                     5      41.6933090961065
143504256    0.0467800792061389                     5      44.1533090961065
143504256    0.0467800792061389                     5      46.6133090961065
143504256    0.0467800792061389                     5      49.0733090961065
143504256      2.18824207920614                     5      33.0833090961065
143504256      2.18824207920614                     5      35.5433090961065
143504256      2.18824207920614                     5      38.0033090961065