search structure

300 atoms
2  atom types

0   17.131700 xlo xhi
0   10.000000 ylo yhi
0   50.000000 zlo zhi

Atoms

1 2 4.331347 5.000000 34.306500
2 2 4.331347 5.000000 36.766500
3 2 4.331347 5.000000 39.226500
4 2 4.331347 5.000000 41.686500
5 2 4.331347 5.000000 44.146500
6 2 4.331347 5.000000 46.606500
7 2 4.331347 5.000000 49.066500
8 2 6.472809 5.000000 33.076500
9 2 6.472809 5.000000 35.536500
10 2 6.472809 5.000000 37.996500
11 2 6.472809 5.000000 40.456500
12 2 6.472809 5.000000 42.916500
13 2 6.472809 5.000000 45.376500
14 2 6.472809 5.000000 47.836500
15 2 5.759103 5.000000 34.306500
16 2 5.759103 5.000000 36.766500
17 2 5.759103 5.000000 39.226500
18 2 5.759103 5.000000 41.686500
19 2 5.759103 5.000000 44.146500
20 2 5.759103 5.000000 46.606500
21 2 5.759103 5.000000 49.066500
22 2 7.900565 5.000000 33.076500
23 2 7.900565 5.000000 35.536500
24 2 7.900565 5.000000 37.996500
25 2 7.900565 5.000000 40.456500
26 2 7.900565 5.000000 42.916500
27 2 7.900565 5.000000 45.376500
28 2 7.900565 5.000000 47.836500
29 2 8.614272 5.000000 34.306500
30 2 8.614272 5.000000 36.766500
31 1 8.614272 5.000000 39.226500
32 1 8.614272 5.000000 41.686500
33 1 8.614272 5.000000 44.146500
34 1 8.614272 5.000000 46.606500
35 1 8.614272 5.000000 49.066500
36 1 10.755734 5.000000 33.076500
37 1 10.755734 5.000000 35.536500
38 1 10.755734 5.000000 37.996500
39 1 10.755734 5.000000 40.456500
40 1 10.755734 5.000000 42.916500
41 1 10.755734 5.000000 45.376500
42 1 10.755734 5.000000 47.836500
43 1 10.042028 5.000000 34.306500
44 1 10.042028 5.000000 36.766500
45 1 10.042028 5.000000 39.226500
46 1 10.042028 5.000000 41.686500
47 1 10.042028 5.000000 44.146500
48 1 10.042028 5.000000 46.606500
49 1 10.042028 5.000000 49.066500
50 1 12.183490 5.000000 33.076500
51 1 12.183490 5.000000 35.536500
52 1 12.183490 5.000000 37.996500
53 1 12.183490 5.000000 40.456500
54 1 12.183490 5.000000 42.916500
55 1 12.183490 5.000000 45.376500
56 1 12.183490 5.000000 47.836500
57 1 12.897197 5.000000 34.306500
58 1 12.897197 5.000000 36.766500
59 1 12.897197 5.000000 39.226500
60 1 12.897197 5.000000 41.686500
61 1 12.897197 5.000000 44.146500
62 1 12.897197 5.000000 46.606500
63 1 12.897197 5.000000 49.066500
64 1 15.038659 5.000000 33.076500
65 1 15.038659 5.000000 35.536500
66 1 15.038659 5.000000 37.996500
67 1 15.038659 5.000000 40.456500
68 1 15.038659 5.000000 42.916500
69 1 15.038659 5.000000 45.376500
70 1 15.038659 5.000000 47.836500
71 1 14.324953 5.000000 34.306500
72 1 14.324953 5.000000 36.766500
73 1 14.324953 5.000000 39.226500
74 1 14.324953 5.000000 41.686500
75 1 14.324953 5.000000 44.146500
76 1 14.324953 5.000000 46.606500
77 1 14.324953 5.000000 49.066500
78 1 16.466415 5.000000 33.076500
79 1 16.466415 5.000000 35.536500
80 1 16.466415 5.000000 37.996500
81 1 16.466415 5.000000 40.456500
82 1 16.466415 5.000000 42.916500
83 1 16.466415 5.000000 45.376500
84 1 16.466415 5.000000 47.836500
85 1 0.048422 5.000000 34.306500
86 1 0.048422 5.000000 36.766500
87 1 0.048422 5.000000 39.226500
88 1 0.048422 5.000000 41.686500
89 1 0.048422 5.000000 44.146500
90 1 0.048422 5.000000 46.606500
91 1 0.048422 5.000000 49.066500
92 1 2.189884 5.000000 33.076500
93 1 2.189884 5.000000 35.536500
94 1 2.189884 5.000000 37.996500
95 1 2.189884 5.000000 40.456500
96 1 2.189884 5.000000 42.916500
97 1 2.189884 5.000000 45.376500
98 1 2.189884 5.000000 47.836500
99 1 1.476178 5.000000 34.306500
100 1 1.476178 5.000000 36.766500
101 1 1.476178 5.000000 39.226500
102 1 1.476178 5.000000 41.686500
103 1 1.476178 5.000000 44.146500
104 1 1.476178 5.000000 46.606500
105 1 1.476178 5.000000 49.066500
106 1 3.617640 5.000000 33.076500
107 1 3.617640 5.000000 35.536500
108 1 3.617640 5.000000 37.996500
109 1 3.617640 5.000000 40.456500
110 1 3.617640 5.000000 42.916500
111 1 3.617640 5.000000 45.376500
112 1 3.617640 5.000000 47.836500
113 2 3.761204 5.000000 50.054000
114 2 6.329075 5.000000 50.054000
115 2 8.046356 5.000000 50.055000
116 2 10.612000 5.000000 50.054000
117 2 12.329281 5.000000 50.055000
118 2 14.894925 5.000000 50.054000
119 2 16.612206 5.000000 50.055000
120 2 2.046150 5.000000 50.054000
121 1 -0.039917 5.000000 8.565500
122 1 -0.039917 5.000000 12.826500
123 1 -0.039917 5.000000 17.087500
124 1 -0.039917 5.000000 21.348000
125 1 -0.039917 5.000000 9.986000
126 1 -0.039917 5.000000 14.246500
127 1 -0.039917 5.000000 18.507500
128 1 -0.039917 5.000000 22.768500
129 1 15.868066 5.000000 10.696000
130 1 15.868066 5.000000 14.957000
131 1 15.868066 5.000000 19.217500
132 1 15.868066 5.000000 23.478500
133 1 15.868066 5.000000 7.855500
134 1 15.868066 5.000000 12.116500
135 1 15.868066 5.000000 16.377000
136 1 15.868066 5.000000 20.638000
137 1 14.644348 5.000000 8.565500
138 1 14.644348 5.000000 12.826500
139 1 14.644348 5.000000 17.087500
140 1 14.644348 5.000000 21.348000
141 1 13.420631 5.000000 10.696000
142 1 13.420631 5.000000 14.957000
143 1 13.420631 5.000000 19.217500
144 1 13.420631 5.000000 23.478500
145 1 14.644348 5.000000 9.986000
146 1 14.644348 5.000000 14.246500
147 1 14.644348 5.000000 18.507500
148 1 14.644348 5.000000 22.768500
149 1 13.420631 5.000000 7.855500
150 1 13.420631 5.000000 12.116500
151 1 13.420631 5.000000 16.377000
152 1 13.420631 5.000000 20.638000
153 1 12.197085 5.000000 8.565500
154 1 12.197085 5.000000 12.826500
155 1 12.197085 5.000000 17.087500
156 1 12.197085 5.000000 21.348000
157 1 10.973368 5.000000 10.696000
158 1 10.973368 5.000000 14.957000
159 1 10.973368 5.000000 19.217500
160 1 10.973368 5.000000 23.478500
161 1 12.197085 5.000000 9.986000
162 1 12.197085 5.000000 14.246500
163 1 12.197085 5.000000 18.507500
164 1 12.197085 5.000000 22.768500
165 1 10.973368 5.000000 7.855500
166 1 10.973368 5.000000 12.116500
167 1 10.973368 5.000000 16.377000
168 1 10.973368 5.000000 20.638000
169 1 9.749650 5.000000 8.565500
170 1 9.749650 5.000000 12.826500
171 1 9.749650 5.000000 17.087500
172 1 9.749650 5.000000 21.348000
173 1 8.525933 5.000000 10.696000
174 1 8.525933 5.000000 14.957000
175 1 8.525933 5.000000 19.217500
176 1 8.525933 5.000000 23.478500
177 1 9.749650 5.000000 9.986000
178 1 9.749650 5.000000 14.246500
179 1 9.749650 5.000000 18.507500
180 1 9.749650 5.000000 22.768500
181 1 8.525933 5.000000 7.855500
182 1 8.525933 5.000000 12.116500
183 1 8.525933 5.000000 16.377000
184 1 8.525933 5.000000 20.638000
185 1 7.302216 5.000000 8.565500
186 1 7.302216 5.000000 12.826500
187 1 7.302216 5.000000 17.087500
188 1 7.302216 5.000000 21.348000
189 1 6.078498 5.000000 10.696000
190 1 6.078498 5.000000 14.957000
191 1 6.078498 5.000000 19.217500
192 1 6.078498 5.000000 23.478500
193 1 7.302216 5.000000 9.986000
194 1 7.302216 5.000000 14.246500
195 1 7.302216 5.000000 18.507500
196 1 7.302216 5.000000 22.768500
197 1 6.078498 5.000000 7.855500
198 1 6.078498 5.000000 12.116500
199 1 6.078498 5.000000 16.377000
200 1 6.078498 5.000000 20.638000
201 1 4.854781 5.000000 8.565500
202 1 4.854781 5.000000 12.826500
203 1 4.854781 5.000000 17.087500
204 1 4.854781 5.000000 21.348000
205 1 3.631235 5.000000 10.696000
206 1 3.631235 5.000000 14.957000
207 1 3.631235 5.000000 19.217500
208 1 3.631235 5.000000 23.478500
209 1 4.854781 5.000000 9.986000
210 1 4.854781 5.000000 14.246500
211 1 4.854781 5.000000 18.507500
212 1 4.854781 5.000000 22.768500
213 1 3.631235 5.000000 7.855500
214 1 3.631235 5.000000 12.116500
215 1 3.631235 5.000000 16.377000
216 1 3.631235 5.000000 20.638000
217 1 2.407518 5.000000 8.565500
218 1 2.407518 5.000000 12.826500
219 1 2.407518 5.000000 17.087500
220 1 2.407518 5.000000 21.348000
221 1 1.183800 5.000000 10.696000
222 1 1.183800 5.000000 14.957000
223 1 1.183800 5.000000 19.217500
224 1 1.183800 5.000000 23.478500
225 1 2.407518 5.000000 9.986000
226 1 2.407518 5.000000 14.246500
227 1 2.407518 5.000000 18.507500
228 1 2.407518 5.000000 22.768500
229 1 1.183800 5.000000 7.855500
230 1 1.183800 5.000000 12.116500
231 1 1.183800 5.000000 16.377000
232 1 1.183800 5.000000 20.638000
233 2 15.865667 5.000000 6.715500
234 2 13.423030 5.000000 6.715500
235 2 10.975766 5.000000 6.715500
236 2 8.528332 5.000000 6.715500
237 2 6.080897 5.000000 6.715500
238 2 3.633634 5.000000 6.715500
239 2 1.181402 5.000000 6.715500
240 2 5.908303 0.169429 23.500000
241 2 13.033209 2.838781 25.709404
242 2 7.975877 8.686651 23.500000
243 2 5.133734 0.328921 26.152494
244 2 4.256091 8.966004 23.500000
245 2 5.848338 9.251306 25.950204
246 2 11.729580 3.718185 23.500000
247 2 15.065150 9.400116 24.379366
248 2 1.044739 0.592717 24.663076
249 2 6.504809 8.763460 23.755251
250 2 2.680282 7.598215 25.342103
251 2 14.892971 0.553066 26.429179
252 2 4.971952 3.032524 25.407097
253 2 3.096605 3.112685 25.928198
254 2 12.909195 8.386133 27.041878
255 2 3.473840 4.723615 24.556771
256 2 13.120713 6.521943 25.927725
257 2 13.339552 9.932709 26.404219
258 2 5.375562 9.252145 30.816779
259 2 16.193812 4.985718 27.134170
260 2 7.249096 6.679266 26.022345
261 2 15.777002 7.106525 31.751411
262 2 4.512224 8.436716 29.932673
263 2 2.089543 5.970938 33.000000
264 2 13.129512 6.973828 32.973937
265 2 10.475055 6.009437 28.944385
266 2 9.551711 6.566887 26.461257
267 2 14.335851 8.929828 26.866915
268 1 4.210962 5.534262 24.906928
269 1 5.622575 0.528066 25.954595
270 1 0.498702 9.922375 27.887832
271 1 9.065085 2.619224 27.022774
272 1 9.264027 2.686659 25.661067
273 1 15.718139 4.704474 25.074993
274 1 3.560095 0.110045 26.951213
275 1 15.469144 1.223159 24.763754
276 1 14.593092 9.630271 23.804958
277 1 5.248342 1.998788 24.366740
278 1 7.794651 9.030689 25.419825
279 1 8.190243 9.258058 24.251756
280 1 6.415035 9.333071 24.187777
281 1 10.819543 0.621458 25.623399
282 1 9.343014 5.261258 30.673208
283 1 8.113067 7.543806 28.151268
284 1 16.341350 7.789883 26.765904
285 1 14.759643 9.572424 30.582257
286 1 10.432846 6.191578 26.705546
287 1 10.221270 8.969960 26.850602
288 1 7.307744 0.357650 25.995996
289 1 8.135993 0.363469 31.776096
290 1 15.121861 5.961940 32.814415
291 1 5.246325 2.296341 32.037927
292 1 2.392644 2.565338 30.041357
293 1 4.672413 2.630926 32.035157
294 1 0.041160 9.402930 28.009822
295 1 14.782924 6.718085 30.441247
296 1 14.375917 3.753961 31.517831
297 1 16.369426 8.611975 29.845995
298 1 5.374600 0.031542 33.000000
299 1 1.108528 9.069549 33.000000
300 1 10.852194 0.352349 33.000000
