300
Atoms. Timestep: 0
54076320             16.882188                     5               34.3065
54076320             16.882188                     5               36.7665
54076320             16.882188                     5               39.2265
54076320             16.882188                     5               41.6865
54076320             16.882188                     5               44.1465
54076320             16.882188                     5               46.6065
54076320             16.882188                     5               49.0665
54076320               1.89195                     5               33.0765
54076320               1.89195                     5               35.5365
54076320               1.89195                     5               37.9965
54076320               1.89195                     5               40.4565
54076320               1.89195                     5               42.9165
54076320               1.89195                     5               45.3765
54076320               1.89195                     5               47.8365
54076320              1.178244                     5               34.3065
54076320              1.178244                     5               36.7665
54076320              1.178244                     5               39.2265
54076320              1.178244                     5               41.6865
54076320              1.178244                     5               44.1465
54076320              1.178244                     5               46.6065
54076320              1.178244                     5               49.0665
54076320              3.319706                     5               33.0765
54076320              3.319706                     5               35.5365
54076320              3.319706                     5               37.9965
54076320              3.319706                     5               40.4565
54076320              3.319706                     5               42.9165
54076320              3.319706                     5               45.3765
54076320              3.319706                     5               47.8365
54076320              4.033413                     5               34.3065
54076320              4.033413                     5               36.7665
54076288              4.033413                     5               39.2265
54076288              4.033413                     5               41.6865
54076288              4.033413                     5               44.1465
54076288              4.033413                     5               46.6065
54076288              4.033413                     5               49.0665
54076288              6.174875                     5               33.0765
54076288              6.174875                     5               35.5365
54076288              6.174875                     5               37.9965
54076288              6.174875                     5               40.4565
54076288              6.174875                     5               42.9165
54076288              6.174875                     5               45.3765
54076288              6.174875                     5               47.8365
54076288              5.461169                     5               34.3065
54076288              5.461169                     5               36.7665
54076288              5.461169                     5               39.2265
54076288              5.461169                     5               41.6865
54076288              5.461169                     5               44.1465
54076288              5.461169                     5               46.6065
54076288              5.461169                     5               49.0665
54076288              7.602631                     5               33.0765
54076288              7.602631                     5               35.5365
54076288              7.602631                     5               37.9965
54076288              7.602631                     5               40.4565
54076288              7.602631                     5               42.9165
54076288              7.602631                     5               45.3765
54076288              7.602631                     5               47.8365
54076288              8.316338                     5               34.3065
54076288              8.316338                     5               36.7665
54076288              8.316338                     5               39.2265
54076288              8.316338                     5               41.6865
54076288              8.316338                     5               44.1465
54076288              8.316338                     5               46.6065
54076288              8.316338                     5               49.0665
54076288               10.4578                     5               33.0765
54076288               10.4578                     5               35.5365
54076288               10.4578                     5               37.9965
54076288               10.4578                     5               40.4565
54076288               10.4578                     5               42.9165
54076288               10.4578                     5               45.3765
54076288               10.4578                     5               47.8365
54076288              9.744094                     5               34.3065
54076288              9.744094                     5               36.7665
54076288              9.744094                     5               39.2265
54076288              9.744094                     5               41.6865
54076288              9.744094                     5               44.1465
54076288              9.744094                     5               46.6065
54076288              9.744094                     5               49.0665
54076288             11.885556                     5               33.0765
54076288             11.885556                     5               35.5365
54076288             11.885556                     5               37.9965
54076288             11.885556                     5               40.4565
54076288             11.885556                     5               42.9165
54076288             11.885556                     5               45.3765
54076288             11.885556                     5               47.8365
54076288             12.599263                     5               34.3065
54076288             12.599263                     5               36.7665
54076288             12.599263                     5               39.2265
54076288             12.599263                     5               41.6865
54076288             12.599263                     5               44.1465
54076288             12.599263                     5               46.6065
54076288             12.599263                     5               49.0665
54076288             14.740725                     5               33.0765
54076288             14.740725                     5               35.5365
54076288             14.740725                     5               37.9965
54076288             14.740725                     5               40.4565
54076288             14.740725                     5               42.9165
54076288             14.740725                     5               45.3765
54076288             14.740725                     5               47.8365
54076288             14.027019                     5               34.3065
54076288             14.027019                     5               36.7665
54076288             14.027019                     5               39.2265
54076288             14.027019                     5               41.6865
54076288             14.027019                     5               44.1465
54076288             14.027019                     5               46.6065
54076288             14.027019                     5               49.0665
54076288             16.168481                     5               33.0765
54076288             16.168481                     5               35.5365
54076288             16.168481                     5               37.9965
54076288             16.168481                     5               40.4565
54076288             16.168481                     5               42.9165
54076288             16.168481                     5               45.3765
54076288             16.168481                     5               47.8365
54076320             16.312045                     5     0.054000000000002
54076320              1.748215                     5     0.054000000000002
54076320              3.465497                     5    0.0549999999999997
54076320               6.03114                     5     0.054000000000002
54076320              7.748422                     5    0.0549999999999997
54076320             10.314065                     5     0.054000000000002
54076320             12.031347                     5    0.0549999999999997
54076320              14.59699                     5     0.054000000000002
54076288             17.091783                     5                8.5655
54076288             17.091783                     5               12.8265
54076288             17.091783                     5               17.0875
54076288             17.091783                     5                21.348
54076288             17.091783                     5                 9.986
54076288             17.091783                     5               14.2465
54076288             17.091783                     5               18.5075
54076288             17.091783                     5               22.7685
54076288             15.868066                     5                10.696
54076288             15.868066                     5                14.957
54076288             15.868066                     5               19.2175
54076288             15.868066                     5               23.4785
54076288             15.868066                     5                7.8555
54076288             15.868066                     5               12.1165
54076288             15.868066                     5                16.377
54076288             15.868066                     5                20.638
54076288             14.644348                     5                8.5655
54076288             14.644348                     5               12.8265
54076288             14.644348                     5               17.0875
54076288             14.644348                     5                21.348
54076288             13.420631                     5                10.696
54076288             13.420631                     5                14.957
54076288             13.420631                     5               19.2175
54076288             13.420631                     5               23.4785
54076288             14.644348                     5                 9.986
54076288             14.644348                     5               14.2465
54076288             14.644348                     5               18.5075
54076288             14.644348                     5               22.7685
54076288             13.420631                     5                7.8555
54076288             13.420631                     5               12.1165
54076288             13.420631                     5                16.377
54076288             13.420631                     5                20.638
54076288             12.197085                     5                8.5655
54076288             12.197085                     5               12.8265
54076288             12.197085                     5               17.0875
54076288             12.197085                     5                21.348
54076288             10.973368                     5                10.696
54076288             10.973368                     5                14.957
54076288             10.973368                     5               19.2175
54076288             10.973368                     5               23.4785
54076288             12.197085                     5                 9.986
54076288             12.197085                     5               14.2465
54076288             12.197085                     5               18.5075
54076288             12.197085                     5               22.7685
54076288             10.973368                     5                7.8555
54076288             10.973368                     5               12.1165
54076288             10.973368                     5                16.377
54076288             10.973368                     5                20.638
54076288               9.74965                     5                8.5655
54076288               9.74965                     5               12.8265
54076288               9.74965                     5               17.0875
54076288               9.74965                     5                21.348
54076288              8.525933                     5                10.696
54076288              8.525933                     5                14.957
54076288              8.525933                     5               19.2175
54076288              8.525933                     5               23.4785
54076288               9.74965                     5                 9.986
54076288               9.74965                     5               14.2465
54076288               9.74965                     5               18.5075
54076288               9.74965                     5               22.7685
54076288              8.525933                     5                7.8555
54076288              8.525933                     5               12.1165
54076288              8.525933                     5                16.377
54076288              8.525933                     5                20.638
54076288              7.302216                     5                8.5655
54076288              7.302216                     5               12.8265
54076288              7.302216                     5               17.0875
54076288              7.302216                     5                21.348
54076288              6.078498                     5                10.696
54076288              6.078498                     5                14.957
54076288              6.078498                     5               19.2175
54076288              6.078498                     5               23.4785
54076288              7.302216                     5                 9.986
54076288              7.302216                     5               14.2465
54076288              7.302216                     5               18.5075
54076288              7.302216                     5               22.7685
54076288              6.078498                     5                7.8555
54076288              6.078498                     5               12.1165
54076288              6.078498                     5                16.377
54076288              6.078498                     5                20.638
54076288              4.854781                     5                8.5655
54076288              4.854781                     5               12.8265
54076288              4.854781                     5               17.0875
54076288              4.854781                     5                21.348
54076288              3.631235                     5                10.696
54076288              3.631235                     5                14.957
54076288              3.631235                     5               19.2175
54076288              3.631235                     5               23.4785
54076288              4.854781                     5                 9.986
54076288              4.854781                     5               14.2465
54076288              4.854781                     5               18.5075
54076288              4.854781                     5               22.7685
54076288              3.631235                     5                7.8555
54076288              3.631235                     5               12.1165
54076288              3.631235                     5                16.377
54076288              3.631235                     5                20.638
54076288              2.407518                     5                8.5655
54076288              2.407518                     5               12.8265
54076288              2.407518                     5               17.0875
54076288              2.407518                     5                21.348
54076288                1.1838                     5                10.696
54076288                1.1838                     5                14.957
54076288                1.1838                     5               19.2175
54076288                1.1838                     5               23.4785
54076288              2.407518                     5                 9.986
54076288              2.407518                     5               14.2465
54076288              2.407518                     5               18.5075
54076288              2.407518                     5               22.7685
54076288                1.1838                     5                7.8555
54076288                1.1838                     5               12.1165
54076288                1.1838                     5                16.377
54076288                1.1838                     5                20.638
54076320             15.865667                     5                6.7155
54076320              13.42303                     5                6.7155
54076320             10.975766                     5                6.7155
54076320              8.528332                     5                6.7155
54076320              6.080897                     5                6.7155
54076320              3.633634                     5                6.7155
54076320              1.181402                     5                6.7155
54076320              3.129191              0.762807             25.656527
54076320             15.649181              1.521312             23.905034
54076320             11.165355              7.694735                  23.5
54076320             12.572756              3.710433             28.608392
54076320              3.190901              1.247289                  23.5
54076320              0.814546              9.880561             26.287749
54076320             12.792992              8.938449                  23.5
54076320              2.029149              3.542384                  23.5
54076320             17.085463               6.61473             26.363851
54076320              5.681083              2.003219             27.499401
54076320              6.594623              3.585626             27.807037
54076320             12.626229              8.454089             29.098491
54076320              2.259002              2.667735             28.469861
54076320             15.385727              8.794501             27.819747
54076320              1.659328              0.970646              26.56248
54076320             11.329486              8.979842             27.447457
54076320              7.902058              1.479255             26.591793
54076320             14.911166              6.587461             29.302256
54076320             11.035696              5.447085             31.100394
54076320              6.764616              7.724379             31.909767
54076320             14.749753              0.414529                    33
54076320              8.080937              3.837314             32.854397
54076320             15.480504              6.270018             31.550851
54076320               4.63547              8.256882                    33
54076320             11.424893              2.839549             29.069951
54076320               3.76436              2.105017             28.248344
54076320             14.982283              3.204424             30.792357
54076320             10.045309              4.121989             32.505859
54076288              5.340495              3.424288                  23.5
54076288             12.609838              6.814286             24.058641
54076288               4.19757              6.294186              27.00946
54076288              5.223909              7.054926             23.513329
54076288              8.080774              8.739239             24.394756
54076288             11.203608               2.64066                  23.5
54076288              1.232344              6.995159             26.002501
54076288             17.106671              6.146746             24.532799
54076288              16.58726              6.348572             23.518991
54076288             12.391553              8.173654             24.301434
54076288                4.4794               9.83452             23.846217
54076288              2.105095              0.014722             25.522886
54076288              1.533931              7.149272             27.216527
54076288              9.462461              8.132679                  23.5
54076288              17.11435              7.970266             25.359998
54076288              2.831369              8.194267             24.049702
54076288              9.128571              2.863506             30.436226
54076288              4.770496              2.820312             28.507543
54076288             12.297248              6.978704             26.134247
54076288             17.049061              6.913914              24.88613
54076288             13.856973               8.73424             24.702481
54076288              16.76411              9.647501              29.14686
54076288              2.338317              5.542405             31.321644
54076288              6.008299              3.619134              31.09866
54076288             13.764357              4.417151             31.159156
54076288             16.485025              6.833117             32.021002
54076288              0.490644              9.592046             28.180907
54076288             15.844978              3.068234             31.053716
54076288              0.983808              6.585564             32.301723
54076288              2.991768              5.924455             30.895847
54076288               4.09227              7.263831             32.604334
54076288             10.330608              8.721781                    33
54076288              2.125983              9.830797                    33
300
Atoms. Timestep: 10
54076320       16.883068057096                     5       34.315882734423
54076320       16.883068057096                     5       36.775882734423
54076320       16.883068057096                     5       39.235882734423
54076320       16.883068057096                     5       41.695882734423
54076320       16.883068057096                     5       44.155882734423
54076320       16.883068057096                     5       46.615882734423
54076320       16.883068057096                     5       49.075882734423
54076320      1.89283005709604                     5       33.085882734423
54076320      1.89283005709604                     5       35.545882734423
54076320      1.89283005709604                     5       38.005882734423
54076320      1.89283005709604                     5       40.465882734423
54076320      1.89283005709604                     5       42.925882734423
54076320      1.89283005709604                     5       45.385882734423
54076320      1.89283005709604                     5       47.845882734423
54076320      1.17912405709604                     5       34.315882734423
54076320      1.17912405709604                     5       36.775882734423
54076320      1.17912405709604                     5       39.235882734423
54076320      1.17912405709604                     5       41.695882734423
54076320      1.17912405709604                     5       44.155882734423
54076320      1.17912405709604                     5       46.615882734423
54076320      1.17912405709604                     5       49.075882734423
54076320      3.32058605709604                     5       33.085882734423
54076320      3.32058605709604                     5       35.545882734423
54076320      3.32058605709604                     5       38.005882734423
54076320      3.32058605709604                     5       40.465882734423
54076320      3.32058605709604                     5       42.925882734423
54076320      3.32058605709604                     5       45.385882734423
54076320      3.32058605709604                     5       47.845882734423
54076320      4.03429305709604                     5       34.315882734423
54076320      4.03429305709604                     5       36.775882734423
54076288      4.03429305709604                     5       39.235882734423
54076288      4.03429305709604                     5       41.695882734423
54076288      4.03429305709604                     5       44.155882734423
54076288      4.03429305709604                     5       46.615882734423
54076288      4.03429305709604                     5       49.075882734423
54076288      6.17575505709604                     5       33.085882734423
54076288      6.17575505709604                     5       35.545882734423
54076288      6.17575505709604                     5       38.005882734423
54076288      6.17575505709604                     5       40.465882734423
54076288      6.17575505709604                     5       42.925882734423
54076288      6.17575505709604                     5       45.385882734423
54076288      6.17575505709604                     5       47.845882734423
54076288      5.46204905709604                     5       34.315882734423
54076288      5.46204905709604                     5       36.775882734423
54076288      5.46204905709604                     5       39.235882734423
54076288      5.46204905709604                     5       41.695882734423
54076288      5.46204905709604                     5       44.155882734423
54076288      5.46204905709604                     5       46.615882734423
54076288      5.46204905709604                     5       49.075882734423
54076288      7.60351105709604                     5       33.085882734423
54076288      7.60351105709604                     5       35.545882734423
54076288      7.60351105709604                     5       38.005882734423
54076288      7.60351105709604                     5       40.465882734423
54076288      7.60351105709604                     5       42.925882734423
54076288      7.60351105709604                     5       45.385882734423
54076288      7.60351105709604                     5       47.845882734423
54076288      8.31721805709604                     5       34.315882734423
54076288      8.31721805709604                     5       36.775882734423
54076288      8.31721805709604                     5       39.235882734423
54076288      8.31721805709604                     5       41.695882734423
54076288      8.31721805709604                     5       44.155882734423
54076288      8.31721805709604                     5       46.615882734423
54076288      8.31721805709604                     5       49.075882734423
54076288       10.458680057096                     5       33.085882734423
54076288       10.458680057096                     5       35.545882734423
54076288       10.458680057096                     5       38.005882734423
54076288       10.458680057096                     5       40.465882734423
54076288       10.458680057096                     5       42.925882734423
54076288       10.458680057096                     5       45.385882734423
54076288       10.458680057096                     5       47.845882734423
54076288      9.74497405709604                     5       34.315882734423
54076288      9.74497405709604                     5       36.775882734423
54076288      9.74497405709604                     5       39.235882734423
54076288      9.74497405709604                     5       41.695882734423
54076288      9.74497405709604                     5       44.155882734423
54076288      9.74497405709604                     5       46.615882734423
54076288      9.74497405709604                     5       49.075882734423
54076288       11.886436057096                     5       33.085882734423
54076288       11.886436057096                     5       35.545882734423
54076288       11.886436057096                     5       38.005882734423
54076288       11.886436057096                     5       40.465882734423
54076288       11.886436057096                     5       42.925882734423
54076288       11.886436057096                     5       45.385882734423
54076288       11.886436057096                     5       47.845882734423
54076288       12.600143057096                     5       34.315882734423
54076288       12.600143057096                     5       36.775882734423
54076288       12.600143057096                     5       39.235882734423
54076288       12.600143057096                     5       41.695882734423
54076288       12.600143057096                     5       44.155882734423
54076288       12.600143057096                     5       46.615882734423
54076288       12.600143057096                     5       49.075882734423
54076288       14.741605057096                     5       33.085882734423
54076288       14.741605057096                     5       35.545882734423
54076288       14.741605057096                     5       38.005882734423
54076288       14.741605057096                     5       40.465882734423
54076288       14.741605057096                     5       42.925882734423
54076288       14.741605057096                     5       45.385882734423
54076288       14.741605057096                     5       47.845882734423
54076288       14.027899057096                     5       34.315882734423