search structure

300 atoms
2  atom types

0   17.131700 xlo xhi
0   10.000000 ylo yhi
0   50.000000 zlo zhi

Atoms

1 2 16.882188 5.000000 34.306500
2 2 16.882188 5.000000 36.766500
3 2 16.882188 5.000000 39.226500
4 2 16.882188 5.000000 41.686500
5 2 16.882188 5.000000 44.146500
6 2 16.882188 5.000000 46.606500
7 2 16.882188 5.000000 49.066500
8 2 1.891950 5.000000 33.076500
9 2 1.891950 5.000000 35.536500
10 2 1.891950 5.000000 37.996500
11 2 1.891950 5.000000 40.456500
12 2 1.891950 5.000000 42.916500
13 2 1.891950 5.000000 45.376500
14 2 1.891950 5.000000 47.836500
15 2 1.178244 5.000000 34.306500
16 2 1.178244 5.000000 36.766500
17 2 1.178244 5.000000 39.226500
18 2 1.178244 5.000000 41.686500
19 2 1.178244 5.000000 44.146500
20 2 1.178244 5.000000 46.606500
21 2 1.178244 5.000000 49.066500
22 2 3.319706 5.000000 33.076500
23 2 3.319706 5.000000 35.536500
24 2 3.319706 5.000000 37.996500
25 2 3.319706 5.000000 40.456500
26 2 3.319706 5.000000 42.916500
27 2 3.319706 5.000000 45.376500
28 2 3.319706 5.000000 47.836500
29 2 4.033413 5.000000 34.306500
30 2 4.033413 5.000000 36.766500
31 1 4.033413 5.000000 39.226500
32 1 4.033413 5.000000 41.686500
33 1 4.033413 5.000000 44.146500
34 1 4.033413 5.000000 46.606500
35 1 4.033413 5.000000 49.066500
36 1 6.174875 5.000000 33.076500
37 1 6.174875 5.000000 35.536500
38 1 6.174875 5.000000 37.996500
39 1 6.174875 5.000000 40.456500
40 1 6.174875 5.000000 42.916500
41 1 6.174875 5.000000 45.376500
42 1 6.174875 5.000000 47.836500
43 1 5.461169 5.000000 34.306500
44 1 5.461169 5.000000 36.766500
45 1 5.461169 5.000000 39.226500
46 1 5.461169 5.000000 41.686500
47 1 5.461169 5.000000 44.146500
48 1 5.461169 5.000000 46.606500
49 1 5.461169 5.000000 49.066500
50 1 7.602631 5.000000 33.076500
51 1 7.602631 5.000000 35.536500
52 1 7.602631 5.000000 37.996500
53 1 7.602631 5.000000 40.456500
54 1 7.602631 5.000000 42.916500
55 1 7.602631 5.000000 45.376500
56 1 7.602631 5.000000 47.836500
57 1 8.316338 5.000000 34.306500
58 1 8.316338 5.000000 36.766500
59 1 8.316338 5.000000 39.226500
60 1 8.316338 5.000000 41.686500
61 1 8.316338 5.000000 44.146500
62 1 8.316338 5.000000 46.606500
63 1 8.316338 5.000000 49.066500
64 1 10.457800 5.000000 33.076500
65 1 10.457800 5.000000 35.536500
66 1 10.457800 5.000000 37.996500
67 1 10.457800 5.000000 40.456500
68 1 10.457800 5.000000 42.916500
69 1 10.457800 5.000000 45.376500
70 1 10.457800 5.000000 47.836500
71 1 9.744094 5.000000 34.306500
72 1 9.744094 5.000000 36.766500
73 1 9.744094 5.000000 39.226500
74 1 9.744094 5.000000 41.686500
75 1 9.744094 5.000000 44.146500
76 1 9.744094 5.000000 46.606500
77 1 9.744094 5.000000 49.066500
78 1 11.885556 5.000000 33.076500
79 1 11.885556 5.000000 35.536500
80 1 11.885556 5.000000 37.996500
81 1 11.885556 5.000000 40.456500
82 1 11.885556 5.000000 42.916500
83 1 11.885556 5.000000 45.376500
84 1 11.885556 5.000000 47.836500
85 1 12.599263 5.000000 34.306500
86 1 12.599263 5.000000 36.766500
87 1 12.599263 5.000000 39.226500
88 1 12.599263 5.000000 41.686500
89 1 12.599263 5.000000 44.146500
90 1 12.599263 5.000000 46.606500
91 1 12.599263 5.000000 49.066500
92 1 14.740725 5.000000 33.076500
93 1 14.740725 5.000000 35.536500
94 1 14.740725 5.000000 37.996500
95 1 14.740725 5.000000 40.456500
96 1 14.740725 5.000000 42.916500
97 1 14.740725 5.000000 45.376500
98 1 14.740725 5.000000 47.836500
99 1 14.027019 5.000000 34.306500
100 1 14.027019 5.000000 36.766500
101 1 14.027019 5.000000 39.226500
102 1 14.027019 5.000000 41.686500
103 1 14.027019 5.000000 44.146500
104 1 14.027019 5.000000 46.606500
105 1 14.027019 5.000000 49.066500
106 1 16.168481 5.000000 33.076500
107 1 16.168481 5.000000 35.536500
108 1 16.168481 5.000000 37.996500
109 1 16.168481 5.000000 40.456500
110 1 16.168481 5.000000 42.916500
111 1 16.168481 5.000000 45.376500
112 1 16.168481 5.000000 47.836500
113 2 16.312045 5.000000 50.054000
114 2 1.748215 5.000000 50.054000
115 2 3.465497 5.000000 50.055000
116 2 6.031140 5.000000 50.054000
117 2 7.748422 5.000000 50.055000
118 2 10.314065 5.000000 50.054000
119 2 12.031347 5.000000 50.055000
120 2 14.596990 5.000000 50.054000
121 1 -0.039917 5.000000 8.565500
122 1 -0.039917 5.000000 12.826500
123 1 -0.039917 5.000000 17.087500
124 1 -0.039917 5.000000 21.348000
125 1 -0.039917 5.000000 9.986000
126 1 -0.039917 5.000000 14.246500
127 1 -0.039917 5.000000 18.507500
128 1 -0.039917 5.000000 22.768500
129 1 15.868066 5.000000 10.696000
130 1 15.868066 5.000000 14.957000
131 1 15.868066 5.000000 19.217500
132 1 15.868066 5.000000 23.478500
133 1 15.868066 5.000000 7.855500
134 1 15.868066 5.000000 12.116500
135 1 15.868066 5.000000 16.377000
136 1 15.868066 5.000000 20.638000
137 1 14.644348 5.000000 8.565500
138 1 14.644348 5.000000 12.826500
139 1 14.644348 5.000000 17.087500
140 1 14.644348 5.000000 21.348000
141 1 13.420631 5.000000 10.696000
142 1 13.420631 5.000000 14.957000
143 1 13.420631 5.000000 19.217500
144 1 13.420631 5.000000 23.478500
145 1 14.644348 5.000000 9.986000
146 1 14.644348 5.000000 14.246500
147 1 14.644348 5.000000 18.507500
148 1 14.644348 5.000000 22.768500
149 1 13.420631 5.000000 7.855500
150 1 13.420631 5.000000 12.116500
151 1 13.420631 5.000000 16.377000
152 1 13.420631 5.000000 20.638000
153 1 12.197085 5.000000 8.565500
154 1 12.197085 5.000000 12.826500
155 1 12.197085 5.000000 17.087500
156 1 12.197085 5.000000 21.348000
157 1 10.973368 5.000000 10.696000
158 1 10.973368 5.000000 14.957000
159 1 10.973368 5.000000 19.217500
160 1 10.973368 5.000000 23.478500
161 1 12.197085 5.000000 9.986000
162 1 12.197085 5.000000 14.246500
163 1 12.197085 5.000000 18.507500
164 1 12.197085 5.000000 22.768500
165 1 10.973368 5.000000 7.855500
166 1 10.973368 5.000000 12.116500
167 1 10.973368 5.000000 16.377000
168 1 10.973368 5.000000 20.638000
169 1 9.749650 5.000000 8.565500
170 1 9.749650 5.000000 12.826500
171 1 9.749650 5.000000 17.087500
172 1 9.749650 5.000000 21.348000
173 1 8.525933 5.000000 10.696000
174 1 8.525933 5.000000 14.957000
175 1 8.525933 5.000000 19.217500
176 1 8.525933 5.000000 23.478500
177 1 9.749650 5.000000 9.986000
178 1 9.749650 5.000000 14.246500
179 1 9.749650 5.000000 18.507500
180 1 9.749650 5.000000 22.768500
181 1 8.525933 5.000000 7.855500
182 1 8.525933 5.000000 12.116500
183 1 8.525933 5.000000 16.377000
184 1 8.525933 5.000000 20.638000
185 1 7.302216 5.000000 8.565500
186 1 7.302216 5.000000 12.826500
187 1 7.302216 5.000000 17.087500
188 1 7.302216 5.000000 21.348000
189 1 6.078498 5.000000 10.696000
190 1 6.078498 5.000000 14.957000
191 1 6.078498 5.000000 19.217500
192 1 6.078498 5.000000 23.478500
193 1 7.302216 5.000000 9.986000
194 1 7.302216 5.000000 14.246500
195 1 7.302216 5.000000 18.507500
196 1 7.302216 5.000000 22.768500
197 1 6.078498 5.000000 7.855500
198 1 6.078498 5.000000 12.116500
199 1 6.078498 5.000000 16.377000
200 1 6.078498 5.000000 20.638000
201 1 4.854781 5.000000 8.565500
202 1 4.854781 5.000000 12.826500
203 1 4.854781 5.000000 17.087500
204 1 4.854781 5.000000 21.348000
205 1 3.631235 5.000000 10.696000
206 1 3.631235 5.000000 14.957000
207 1 3.631235 5.000000 19.217500
208 1 3.631235 5.000000 23.478500
209 1 4.854781 5.000000 9.986000
210 1 4.854781 5.000000 14.246500
211 1 4.854781 5.000000 18.507500
212 1 4.854781 5.000000 22.768500
213 1 3.631235 5.000000 7.855500
214 1 3.631235 5.000000 12.116500
215 1 3.631235 5.000000 16.377000
216 1 3.631235 5.000000 20.638000
217 1 2.407518 5.000000 8.565500
218 1 2.407518 5.000000 12.826500
219 1 2.407518 5.000000 17.087500
220 1 2.407518 5.000000 21.348000
221 1 1.183800 5.000000 10.696000
222 1 1.183800 5.000000 14.957000
223 1 1.183800 5.000000 19.217500
224 1 1.183800 5.000000 23.478500
225 1 2.407518 5.000000 9.986000
226 1 2.407518 5.000000 14.246500
227 1 2.407518 5.000000 18.507500
228 1 2.407518 5.000000 22.768500
229 1 1.183800 5.000000 7.855500
230 1 1.183800 5.000000 12.116500
231 1 1.183800 5.000000 16.377000
232 1 1.183800 5.000000 20.638000
233 2 15.865667 5.000000 6.715500
234 2 13.423030 5.000000 6.715500
235 2 10.975766 5.000000 6.715500
236 2 8.528332 5.000000 6.715500
237 2 6.080897 5.000000 6.715500
238 2 3.633634 5.000000 6.715500
239 2 1.181402 5.000000 6.715500
240 2 3.129191 0.762807 25.656527
241 2 15.649181 1.521312 23.905034
242 2 11.165355 7.694735 23.500000
243 2 12.572756 3.710433 28.608392
244 2 3.190901 1.247289 23.500000
245 2 0.814546 9.880561 26.287749
246 2 12.792992 8.938449 23.500000
247 2 2.029149 3.542384 23.500000
248 2 17.085463 6.614730 26.363851
249 2 5.681083 2.003219 27.499401
250 2 6.594623 3.585626 27.807037
251 2 12.626229 8.454089 29.098491
252 2 2.259002 2.667735 28.469861
253 2 15.385727 8.794501 27.819747
254 2 1.659328 0.970646 26.562480
255 2 11.329486 8.979842 27.447457
256 2 7.902058 1.479255 26.591793
257 2 14.911166 6.587461 29.302256
258 2 11.035696 5.447085 31.100394
259 2 6.764616 7.724379 31.909767
260 2 14.749753 0.414529 33.000000
261 2 8.080937 3.837314 32.854397
262 2 15.480504 6.270018 31.550851
263 2 4.635470 8.256882 33.000000
264 2 11.424893 2.839549 29.069951
265 2 3.764360 2.105017 28.248344
266 2 14.982283 3.204424 30.792357
267 2 10.045309 4.121989 32.505859
268 1 5.340495 3.424288 23.500000
269 1 12.609838 6.814286 24.058641
270 1 4.197570 6.294186 27.009460
271 1 5.223909 7.054926 23.513329
272 1 8.080774 8.739239 24.394756
273 1 11.203608 2.640660 23.500000
274 1 1.232344 6.995159 26.002501
275 1 17.106671 6.146746 24.532799
276 1 16.587260 6.348572 23.518991
277 1 12.391553 8.173654 24.301434
278 1 4.479400 9.834520 23.846217
279 1 2.105095 0.014722 25.522886
280 1 1.533931 7.149272 27.216527
281 1 9.462461 8.132679 23.500000
282 1 17.114350 7.970266 25.359998
283 1 2.831369 8.194267 24.049702
284 1 9.128571 2.863506 30.436226
285 1 4.770496 2.820312 28.507543
286 1 12.297248 6.978704 26.134247
287 1 17.049061 6.913914 24.886130
288 1 13.856973 8.734240 24.702481
289 1 16.764110 9.647501 29.146860
290 1 2.338317 5.542405 31.321644
291 1 6.008299 3.619134 31.098660
292 1 13.764357 4.417151 31.159156
293 1 16.485025 6.833117 32.021002
294 1 0.490644 9.592046 28.180907
295 1 15.844978 3.068234 31.053716
296 1 0.983808 6.585564 32.301723
297 1 2.991768 5.924455 30.895847
298 1 4.092270 7.263831 32.604334
299 1 10.330608 8.721781 33.000000
300 1 2.125983 9.830797 33.000000
