300
Atoms. Timestep: 0
373629856              4.331316                     5             36.490439
373629856              4.331316                     5             38.950439
373629856              4.331316                     5             41.410439
373629856              4.331316                     5             43.870439
373629856              4.331316                     5             46.330439
373629856              4.331316                     5             48.790439
373629856              4.331316                     5              1.250439
373629856              6.472778                     5             35.260439
373629856              6.472778                     5             37.720439
373629856              6.472778                     5             40.180439
373629856              6.472778                     5             42.640439
373629856              6.472778                     5             45.100439
373629856              6.472778                     5             47.560439
373629856              6.472778                     5    0.0204390000000032
373629856              5.759072                     5             36.490439
373629856              5.759072                     5             38.950439
373629856              5.759072                     5             41.410439
373629856              5.759072                     5             43.870439
373629856              5.759072                     5             46.330439
373629856              5.759072                     5             48.790439
373629856              5.759072                     5              1.250439
373629856              7.900534                     5             35.260439
373629856              7.900534                     5             37.720439
373629856              7.900534                     5             40.180439
373629856              7.900534                     5             42.640439
373629856              7.900534                     5             45.100439
373629856              7.900534                     5             47.560439
373629856              7.900534                     5    0.0204390000000032
373629856              8.614241                     5             36.490439
373629856              8.614241                     5             38.950439
373629824              8.614241                     5             41.410439
373629824              8.614241                     5             43.870439
373629824              8.614241                     5             46.330439
373629824              8.614241                     5             48.790439
373629824              8.614241                     5              1.250439
373629824             10.755703                     5             35.260439
373629824             10.755703                     5             37.720439
373629824             10.755703                     5             40.180439
373629824             10.755703                     5             42.640439
373629824             10.755703                     5             45.100439
373629824             10.755703                     5             47.560439
373629824             10.755703                     5    0.0204390000000032
373629824             10.041997                     5             36.490439
373629824             10.041997                     5             38.950439
373629824             10.041997                     5             41.410439
373629824             10.041997                     5             43.870439
373629824             10.041997                     5             46.330439
373629824             10.041997                     5             48.790439
373629824             10.041997                     5              1.250439
373629824             12.183459                     5             35.260439
373629824             12.183459                     5             37.720439
373629824             12.183459                     5             40.180439
373629824             12.183459                     5             42.640439
373629824             12.183459                     5             45.100439
373629824             12.183459                     5             47.560439
373629824             12.183459                     5    0.0204390000000032
373629824             12.897166                     5             36.490439
373629824             12.897166                     5             38.950439
373629824             12.897166                     5             41.410439
373629824             12.897166                     5             43.870439
373629824             12.897166                     5             46.330439
373629824             12.897166                     5             48.790439
373629824             12.897166                     5              1.250439
373629824             15.038628                     5             35.260439
373629824             15.038628                     5             37.720439
373629824             15.038628                     5             40.180439
373629824             15.038628                     5             42.640439
373629824             15.038628                     5             45.100439
373629824             15.038628                     5             47.560439
373629824             15.038628                     5    0.0204390000000032
373629824             14.324922                     5             36.490439
373629824             14.324922                     5             38.950439
373629824             14.324922                     5             41.410439
373629824             14.324922                     5             43.870439
373629824             14.324922                     5             46.330439
373629824             14.324922                     5             48.790439
373629824             14.324922                     5              1.250439
373629824             16.466384                     5             35.260439
373629824             16.466384                     5             37.720439
373629824             16.466384                     5             40.180439
373629824             16.466384                     5             42.640439
373629824             16.466384                     5             45.100439
373629824             16.466384                     5             47.560439
373629824             16.466384                     5    0.0204390000000032
373629824              0.048391                     5             36.490439
373629824              0.048391                     5             38.950439
373629824              0.048391                     5             41.410439
373629824              0.048391                     5             43.870439
373629824              0.048391                     5             46.330439
373629824              0.048391                     5             48.790439
373629824              0.048391                     5              1.250439
373629824              2.189853                     5             35.260439
373629824              2.189853                     5             37.720439
373629824              2.189853                     5             40.180439
373629824              2.189853                     5             42.640439
373629824              2.189853                     5             45.100439
373629824              2.189853                     5             47.560439
373629824              2.189853                     5    0.0204390000000032
373629824              1.476147                     5             36.490439
373629824              1.476147                     5             38.950439
373629824              1.476147                     5             41.410439
373629824              1.476147                     5             43.870439
373629824              1.476147                     5             46.330439
373629824              1.476147                     5             48.790439
373629824              1.476147                     5              1.250439
373629824              3.617609                     5             35.260439
373629824              3.617609                     5             37.720439
373629824              3.617609                     5             40.180439
373629824              3.617609                     5             42.640439
373629824              3.617609                     5             45.100439
373629824              3.617609                     5             47.560439
373629824              3.617609                     5    0.0204390000000032
373629856              3.761173                     5              2.237939
373629856              6.329043                     5              2.237939
373629856              8.046325                     5              2.238939
373629856             10.611968                     5              2.237939
373629856              12.32925                     5              2.238939
373629856             14.894893                     5              2.237939
373629856             16.612175                     5              2.238939
373629856              2.046118                     5              2.237939
373629824             17.091783                     5                8.5655
373629824             17.091783                     5               12.8265
373629824             17.091783                     5               17.0875
373629824             17.091783                     5                21.348
373629824             17.091783                     5                 9.986
373629824             17.091783                     5               14.2465
373629824             17.091783                     5               18.5075
373629824             17.091783                     5               22.7685
373629824             15.868066                     5                10.696
373629824             15.868066                     5                14.957
373629824             15.868066                     5               19.2175
373629824             15.868066                     5               23.4785
373629824             15.868066                     5                7.8555
373629824             15.868066                     5               12.1165
373629824             15.868066                     5                16.377
373629824             15.868066                     5                20.638
373629824             14.644348                     5                8.5655
373629824             14.644348                     5               12.8265
373629824             14.644348                     5               17.0875
373629824             14.644348                     5                21.348
373629824             13.420631                     5                10.696
373629824             13.420631                     5                14.957
373629824             13.420631                     5               19.2175
373629824             13.420631                     5               23.4785
373629824             14.644348                     5                 9.986
373629824             14.644348                     5               14.2465
373629824             14.644348                     5               18.5075
373629824             14.644348                     5               22.7685
373629824             13.420631                     5                7.8555
373629824             13.420631                     5               12.1165
373629824             13.420631                     5                16.377
373629824             13.420631                     5                20.638
373629824             12.197085                     5                8.5655
373629824             12.197085                     5               12.8265
373629824             12.197085                     5               17.0875
373629824             12.197085                     5                21.348
373629824             10.973368                     5                10.696
373629824             10.973368                     5                14.957
373629824             10.973368                     5               19.2175
373629824             10.973368                     5               23.4785
373629824             12.197085                     5                 9.986
373629824             12.197085                     5               14.2465
373629824             12.197085                     5               18.5075
373629824             12.197085                     5               22.7685
373629824             10.973368                     5                7.8555
373629824             10.973368                     5               12.1165
373629824             10.973368                     5                16.377
373629824             10.973368                     5                20.638
373629824               9.74965                     5                8.5655
373629824               9.74965                     5               12.8265
373629824               9.74965                     5               17.0875
373629824               9.74965                     5                21.348
373629824              8.525933                     5                10.696
373629824              8.525933                     5                14.957
373629824              8.525933                     5               19.2175
373629824              8.525933                     5               23.4785
373629824               9.74965                     5                 9.986
373629824               9.74965                     5               14.2465
373629824               9.74965                     5               18.5075
373629824               9.74965                     5               22.7685
373629824              8.525933                     5                7.8555
373629824              8.525933                     5               12.1165
373629824              8.525933                     5                16.377
373629824              8.525933                     5                20.638
373629824              7.302216                     5                8.5655
373629824              7.302216                     5               12.8265
373629824              7.302216                     5               17.0875
373629824              7.302216                     5                21.348
373629824              6.078498                     5                10.696
373629824              6.078498                     5                14.957
373629824              6.078498                     5               19.2175
373629824              6.078498                     5               23.4785
373629824              7.302216                     5                 9.986
373629824              7.302216                     5               14.2465
373629824              7.302216                     5               18.5075
373629824              7.302216                     5               22.7685
373629824              6.078498                     5                7.8555
373629824              6.078498                     5               12.1165
373629824              6.078498                     5                16.377
373629824              6.078498                     5                20.638
373629824              4.854781                     5                8.5655
373629824              4.854781                     5               12.8265
373629824              4.854781                     5               17.0875
373629824              4.854781                     5                21.348
373629824              3.631235                     5                10.696
373629824              3.631235                     5                14.957
373629824              3.631235                     5               19.2175
373629824              3.631235                     5               23.4785
373629824              4.854781                     5                 9.986
373629824              4.854781                     5               14.2465
373629824              4.854781                     5               18.5075
373629824              4.854781                     5               22.7685
373629824              3.631235                     5                7.8555
373629824              3.631235                     5               12.1165
373629824              3.631235                     5                16.377
373629824              3.631235                     5                20.638
373629824              2.407518                     5                8.5655
373629824              2.407518                     5               12.8265
373629824              2.407518                     5               17.0875
373629824              2.407518                     5                21.348
373629824                1.1838                     5                10.696
373629824                1.1838                     5                14.957
373629824                1.1838                     5               19.2175
373629824                1.1838                     5               23.4785
373629824              2.407518                     5                 9.986
373629824              2.407518                     5               14.2465
373629824              2.407518                     5               18.5075
373629824              2.407518                     5               22.7685
373629824                1.1838                     5                7.8555
373629824                1.1838                     5               12.1165
373629824                1.1838                     5                16.377
373629824                1.1838                     5                20.638
373629856             15.865667                     5                6.7155
373629856              13.42303                     5                6.7155
373629856             10.975766                     5                6.7155
373629856              8.528332                     5                6.7155
373629856              6.080897                     5                6.7155
373629856              3.633634                     5                6.7155
373629856              1.181402                     5                6.7155
373629856              12.23541              2.494371                  23.5
373629856              7.647292              3.037458             23.613417
373629856              3.864583              7.220954             25.988445
373629856             10.428018              4.680515             24.472725
373629856             14.586345              2.736294             26.806534
373629856              1.731901              2.211508             25.023231
373629856             12.664936              5.464849             26.806211
373629856             16.156616               8.95549              24.84648
373629856             13.837431               9.67929             25.497698
373629856              0.746957              0.151308             26.997518
373629856              2.738782              1.883819             27.311933
373629856               1.61038              6.977612             27.791531
373629856             15.643786              1.050978             24.983222
373629856              1.269117              4.901338             27.067906
373629856              9.003382              9.756942             28.086658
373629856              3.318881              9.656518             28.291197
373629856              1.185345              2.831872             28.946074
373629856             10.983965              0.905341             27.942731
373629856             16.675779              2.129542             34.795512
373629856              4.854501              5.449925             30.956188
373629856              1.072603              6.966035             31.070781
373629856              4.258752              3.862584             34.593175
373629856             10.784015              3.284724             34.477015
373629856             15.406778              5.812893             33.375232
373629856             14.268081              5.971999             32.654269
373629856             15.576448              7.067078             28.204269
373629856              5.281819              7.132564             28.078612
373629856             15.228011              8.159837             31.773021
373629824              6.931855              1.877139             24.977285
373629824              2.725778              4.189343             26.578667
373629824              6.343863              5.483853             24.710828
373629824             14.209661              5.805237              26.46988
373629824              0.560664              6.140091             28.256593
373629824              8.641093              9.781344             23.927694
373629824              6.744225              8.870504             24.437553
373629824             13.698534              3.284947             25.893328
373629824              3.342445              4.946518             25.555917
373629824              8.797759              4.618626                  23.5
373629824             13.461216              9.389612             27.961326
373629824              4.816093              0.434501             28.923756
373629824              4.858893              4.440506             28.176054
373629824              9.353698              4.596228              31.02696
373629824              2.689104              6.446366             32.031832
373629824              5.074789              7.406999             31.798508
373629824              8.949978              5.838844             31.853544
373629824              4.918305              5.839443             32.312177
373629824             16.159823              4.678574             25.217853
373629824              9.194883              5.813764              29.05084
373629824             11.022388              6.679931             30.894693
373629824             16.782749              7.854466             31.927657
373629824              0.759751              2.926825             32.187586
373629824             13.068762              1.453595             32.378815
373629824              1.022848              4.271259              34.37354
373629824              5.874404              8.049855             33.592093
373629824             15.156894              9.520562             30.298975
373629824              5.667236              8.391444             35.183939
373629824             16.444295              1.725988             33.947363
373629824             13.330808              3.003483             34.108815
373629824               3.86986              8.377574             33.832346
373629824              10.31539              7.662764             34.160412
373629824              2.331063              7.951935              34.68006
300
Atoms. Timestep: 10
373629856      4.33134698236201                     5      36.4903308359516
373629856      4.33134698236201                     5      38.9503308359516
373629856      4.33134698236201                     5      41.4103308359516
373629856      4.33134698236201                     5      43.8703308359516
373629856      4.33134698236201                     5      46.3303308359516
373629856      4.33134698236201                     5      48.7903308359516
373629856      4.33134698236201                     5      1.25033083595157
373629856      6.47280898236201                     5      35.2603308359516
373629856      6.47280898236201                     5      37.7203308359516
373629856      6.47280898236201                     5      40.1803308359516
373629856      6.47280898236201                     5      42.6403308359516
373629856      6.47280898236201                     5      45.1003308359516
373629856      6.47280898236201                     5      47.5603308359516
373629856      6.47280898236201                     5    0.0203308359515699
373629856      5.75910298236201                     5      36.4903308359516
373629856      5.75910298236201                     5      38.9503308359516
373629856      5.75910298236201                     5      41.4103308359516
373629856      5.75910298236201                     5      43.8703308359516
373629856      5.75910298236201                     5      46.3303308359516
373629856      5.75910298236201                     5      48.7903308359516
373629856      5.75910298236201                     5      1.25033083595157
373629856      7.90056498236201                     5      35.2603308359516
373629856      7.90056498236201                     5      37.7203308359516
373629856      7.90056498236201                     5      40.1803308359516
373629856      7.90056498236201                     5      42.6403308359516
373629856      7.90056498236201                     5      45.1003308359516
373629856      7.90056498236201                     5      47.5603308359516
373629856      7.90056498236201                     5    0.0203308359515699
373629856        8.614271982362                     5      36.4903308359516
373629856        8.614271982362                     5      38.9503308359516
373629824        8.614271982362                     5      41.4103308359516
373629824        8.614271982362                     5      43.8703308359516
373629824        8.614271982362                     5      46.3303308359516
373629824        8.614271982362                     5      48.7903308359516
373629824        8.614271982362                     5      1.25033083595157
373629824       10.755733982362                     5      35.2603308359516
373629824       10.755733982362                     5      37.7203308359516
373629824       10.755733982362                     5      40.1803308359516
373629824       10.755733982362                     5      42.6403308359516
373629824       10.755733982362                     5      45.1003308359516
373629824       10.755733982362                     5      47.5603308359516
373629824       10.755733982362                     5    0.0203308359515699
373629824       10.042027982362                     5      36.4903308359516
373629824       10.042027982362                     5      38.9503308359516
373629824       10.042027982362                     5      41.4103308359516
373629824       10.042027982362                     5      43.8703308359516
373629824       10.042027982362                     5      46.3303308359516
373629824       10.042027982362                     5      48.7903308359516
373629824       10.042027982362                     5      1.25033083595157
373629824       12.183489982362                     5      35.2603308359516
373629824       12.183489982362                     5      37.7203308359516
373629824       12.183489982362                     5      40.1803308359516
373629824       12.183489982362                     5      42.6403308359516
373629824       12.183489982362                     5      45.1003308359516
373629824       12.183489982362                     5      47.5603308359516
373629824       12.183489982362                     5    0.0203308359515699
373629824       12.897196982362                     5      36.4903308359516
373629824       12.897196982362                     5      38.9503308359516
373629824       12.897196982362                     5      41.4103308359516
373629824       12.897196982362                     5      43.8703308359516
373629824       12.897196982362                     5      46.3303308359516
373629824       12.897196982362                     5      48.7903308359516
373629824       12.897196982362                     5      1.25033083595157
373629824       15.038658982362                     5      35.2603308359516
373629824       15.038658982362                     5      37.7203308359516
373629824       15.038658982362                     5      40.1803308359516
373629824       15.038658982362                     5      42.6403308359516
373629824       15.038658982362                     5      45.1003308359516
373629824       15.038658982362                     5      47.5603308359516
373629824       15.038658982362                     5    0.0203308359515699
373629824       14.324952982362                     5      36.4903308359516
373629824       14.324952982362                     5      38.9503308359516
373629824       14.324952982362                     5      41.4103308359516
373629824       14.324952982362                     5      43.8703308359516
373629824       14.324952982362                     5      46.3303308359516
373629824       14.324952982362                     5      48.7903308359516
373629824       14.324952982362                     5      1.25033083595157
373629824       16.466414982362                     5      35.2603308359516
373629824       16.466414982362                     5      37.7203308359516
373629824       16.466414982362                     5      40.1803308359516
373629824       16.466414982362                     5      42.6403308359516
373629824       16.466414982362                     5      45.1003308359516
373629824       16.466414982362                     5      47.5603308359516
373629824       16.466414982362                     5    0.0203308359515699
373629824    0.0484219823620038                     5      36.4903308359516
373629824    0.0484219823620038                     5      38.9503308359516
373629824    0.0484219823620038                     5      41.4103308359516
373629824    0.0484219823620038                     5      43.8703308359516
373629824    0.0484219823620038                     5      46.3303308359516
373629824    0.0484219823620038                     5      48.7903308359516
373629824    0.0484219823620038                     5      1.25033083595157
373629824        2.189883982362                     5      35.2603308359516
373629824        2.189883982362                     5      37.7203308359516
373629824        2.189883982362                     5      40.1803308359516