LAMMPS (30 Aug 2012)
units		metal
boundary	p p p
atom_style	atomic
read_data	struct.lammps
  orthogonal box = (0 0 0) to (17.1317 10 50)
  1 by 1 by 1 MPI processor grid
  300 atoms

pair_style      airebo 3.0
pair_coeff      * * CH.airebo C H

mass	1	12.0
mass	2	1.0

group		fixPosH id <> 1 120
120 atoms in group fixPosH
group		fixPosL id <> 121 239
119 atoms in group fixPosL
group		optPos  id <> 240 1000
61 atoms in group optPos
fix             0       fixPosH setforce NULL 0.0 NULL
fix             1       fixPosH aveforce 0.0 0.0 0.0
fix		2	fixPosL setforce 0.0 0.0 0.0
fix 		3	optPos	setforce NULL 0.0 NULL

neighbor        0.2 bin
neigh_modify	every 1 delay 0 check yes

timestep	0.002
thermo 		1
thermo_style    custom step  pe etotal lx ly lz 

dump		1 all xyz 10000000 dump.atom
dump_modify	1 format "%d  %20.15g  %20.15g  %20.15g" 
#fix 		8 all box/relax iso 0.0 
min_style	cg
minimize	1.0e-12 1.0e-12 10 10
Memory usage per processor = 3.26671 Mbytes
Step PotEng TotEng Lx Ly Lz 
       0   -256.54632   -256.54632      17.1317           10           50 
       1   -578.61036   -578.61036      17.1317           10           50 
       2   -829.21164   -829.21164      17.1317           10           50 
       3   -965.25847   -965.25847      17.1317           10           50 
       4   -1024.7684   -1024.7684      17.1317           10           50 
       5   -1060.2256   -1060.2256      17.1317           10           50 
       6   -1095.7477   -1095.7477      17.1317           10           50 
       7   -1119.8653   -1119.8653      17.1317           10           50 
       8   -1135.7475   -1135.7475      17.1317           10           50 
       9   -1146.3124   -1146.3124      17.1317           10           50 
      10    -1153.939    -1153.939      17.1317           10           50 
Loop time of 0.361414 on 1 procs for 10 steps with 300 atoms

Minimization stats:
  Stopping criterion = max force evaluations
  Energy initial, next-to-last, final = 
        -256.546316878     -1146.31236654     -1153.93903334
  Force two-norm initial, final = 3377.27 50.0543
  Force max component initial, final = 3370.92 30.5918
  Final line search alpha, max atom move = 0.00183944 0.0562718
  Iterations, force evaluations = 10 10

Pair  time (%) = 0.134575 (37.2358)
Neigh time (%) = 0.223247 (61.7705)
Comm  time (%) = 0.00158453 (0.438425)
Outpt time (%) = 0.000129223 (0.0357548)
Other time (%) = 0.00187755 (0.5195)

Nlocal:    300 ave 300 max 300 min
Histogram: 1 0 0 0 0 0 0 0 0 0
Nghost:    2445 ave 2445 max 2445 min
Histogram: 1 0 0 0 0 0 0 0 0 0
Neighs:    0 ave 0 max 0 min
Histogram: 1 0 0 0 0 0 0 0 0 0
FullNghs:  44880 ave 44880 max 44880 min
Histogram: 1 0 0 0 0 0 0 0 0 0

Total # of neighbors = 44880
Ave neighs/atom = 149.6
Neighbor list builds = 10
Dangerous builds = 10
min_modify line quadratic

clear
