search structure

300 atoms
2  atom types

0   17.131700 xlo xhi
0   10.000000 ylo yhi
0   50.000000 zlo zhi

Atoms

1 2 4.331316 5.000000 36.490439
2 2 4.331316 5.000000 38.950439
3 2 4.331316 5.000000 41.410439
4 2 4.331316 5.000000 43.870439
5 2 4.331316 5.000000 46.330439
6 2 4.331316 5.000000 48.790439
7 2 4.331316 5.000000 51.250439
8 2 6.472778 5.000000 35.260439
9 2 6.472778 5.000000 37.720439
10 2 6.472778 5.000000 40.180439
11 2 6.472778 5.000000 42.640439
12 2 6.472778 5.000000 45.100439
13 2 6.472778 5.000000 47.560439
14 2 6.472778 5.000000 50.020439
15 2 5.759072 5.000000 36.490439
16 2 5.759072 5.000000 38.950439
17 2 5.759072 5.000000 41.410439
18 2 5.759072 5.000000 43.870439
19 2 5.759072 5.000000 46.330439
20 2 5.759072 5.000000 48.790439
21 2 5.759072 5.000000 51.250439
22 2 7.900534 5.000000 35.260439
23 2 7.900534 5.000000 37.720439
24 2 7.900534 5.000000 40.180439
25 2 7.900534 5.000000 42.640439
26 2 7.900534 5.000000 45.100439
27 2 7.900534 5.000000 47.560439
28 2 7.900534 5.000000 50.020439
29 2 8.614241 5.000000 36.490439
30 2 8.614241 5.000000 38.950439
31 1 8.614241 5.000000 41.410439
32 1 8.614241 5.000000 43.870439
33 1 8.614241 5.000000 46.330439
34 1 8.614241 5.000000 48.790439
35 1 8.614241 5.000000 51.250439
36 1 10.755703 5.000000 35.260439
37 1 10.755703 5.000000 37.720439
38 1 10.755703 5.000000 40.180439
39 1 10.755703 5.000000 42.640439
40 1 10.755703 5.000000 45.100439
41 1 10.755703 5.000000 47.560439
42 1 10.755703 5.000000 50.020439
43 1 10.041997 5.000000 36.490439
44 1 10.041997 5.000000 38.950439
45 1 10.041997 5.000000 41.410439
46 1 10.041997 5.000000 43.870439
47 1 10.041997 5.000000 46.330439
48 1 10.041997 5.000000 48.790439
49 1 10.041997 5.000000 51.250439
50 1 12.183459 5.000000 35.260439
51 1 12.183459 5.000000 37.720439
52 1 12.183459 5.000000 40.180439
53 1 12.183459 5.000000 42.640439
54 1 12.183459 5.000000 45.100439
55 1 12.183459 5.000000 47.560439
56 1 12.183459 5.000000 50.020439
57 1 12.897166 5.000000 36.490439
58 1 12.897166 5.000000 38.950439
59 1 12.897166 5.000000 41.410439
60 1 12.897166 5.000000 43.870439
61 1 12.897166 5.000000 46.330439
62 1 12.897166 5.000000 48.790439
63 1 12.897166 5.000000 51.250439
64 1 15.038628 5.000000 35.260439
65 1 15.038628 5.000000 37.720439
66 1 15.038628 5.000000 40.180439
67 1 15.038628 5.000000 42.640439
68 1 15.038628 5.000000 45.100439
69 1 15.038628 5.000000 47.560439
70 1 15.038628 5.000000 50.020439
71 1 14.324922 5.000000 36.490439
72 1 14.324922 5.000000 38.950439
73 1 14.324922 5.000000 41.410439
74 1 14.324922 5.000000 43.870439
75 1 14.324922 5.000000 46.330439
76 1 14.324922 5.000000 48.790439
77 1 14.324922 5.000000 51.250439
78 1 16.466384 5.000000 35.260439
79 1 16.466384 5.000000 37.720439
80 1 16.466384 5.000000 40.180439
81 1 16.466384 5.000000 42.640439
82 1 16.466384 5.000000 45.100439
83 1 16.466384 5.000000 47.560439
84 1 16.466384 5.000000 50.020439
85 1 0.048391 5.000000 36.490439
86 1 0.048391 5.000000 38.950439
87 1 0.048391 5.000000 41.410439
88 1 0.048391 5.000000 43.870439
89 1 0.048391 5.000000 46.330439
90 1 0.048391 5.000000 48.790439
91 1 0.048391 5.000000 51.250439
92 1 2.189853 5.000000 35.260439
93 1 2.189853 5.000000 37.720439
94 1 2.189853 5.000000 40.180439
95 1 2.189853 5.000000 42.640439
96 1 2.189853 5.000000 45.100439
97 1 2.189853 5.000000 47.560439
98 1 2.189853 5.000000 50.020439
99 1 1.476147 5.000000 36.490439
100 1 1.476147 5.000000 38.950439
101 1 1.476147 5.000000 41.410439
102 1 1.476147 5.000000 43.870439
103 1 1.476147 5.000000 46.330439
104 1 1.476147 5.000000 48.790439
105 1 1.476147 5.000000 51.250439
106 1 3.617609 5.000000 35.260439
107 1 3.617609 5.000000 37.720439
108 1 3.617609 5.000000 40.180439
109 1 3.617609 5.000000 42.640439
110 1 3.617609 5.000000 45.100439
111 1 3.617609 5.000000 47.560439
112 1 3.617609 5.000000 50.020439
113 2 3.761173 5.000000 52.237939
114 2 6.329043 5.000000 52.237939
115 2 8.046325 5.000000 52.238939
116 2 10.611968 5.000000 52.237939
117 2 12.329250 5.000000 52.238939
118 2 14.894893 5.000000 52.237939
119 2 16.612175 5.000000 52.238939
120 2 2.046118 5.000000 52.237939
121 1 -0.039917 5.000000 8.565500
122 1 -0.039917 5.000000 12.826500
123 1 -0.039917 5.000000 17.087500
124 1 -0.039917 5.000000 21.348000
125 1 -0.039917 5.000000 9.986000
126 1 -0.039917 5.000000 14.246500
127 1 -0.039917 5.000000 18.507500
128 1 -0.039917 5.000000 22.768500
129 1 15.868066 5.000000 10.696000
130 1 15.868066 5.000000 14.957000
131 1 15.868066 5.000000 19.217500
132 1 15.868066 5.000000 23.478500
133 1 15.868066 5.000000 7.855500
134 1 15.868066 5.000000 12.116500
135 1 15.868066 5.000000 16.377000
136 1 15.868066 5.000000 20.638000
137 1 14.644348 5.000000 8.565500
138 1 14.644348 5.000000 12.826500
139 1 14.644348 5.000000 17.087500
140 1 14.644348 5.000000 21.348000
141 1 13.420631 5.000000 10.696000
142 1 13.420631 5.000000 14.957000
143 1 13.420631 5.000000 19.217500
144 1 13.420631 5.000000 23.478500
145 1 14.644348 5.000000 9.986000
146 1 14.644348 5.000000 14.246500
147 1 14.644348 5.000000 18.507500
148 1 14.644348 5.000000 22.768500
149 1 13.420631 5.000000 7.855500
150 1 13.420631 5.000000 12.116500
151 1 13.420631 5.000000 16.377000
152 1 13.420631 5.000000 20.638000
153 1 12.197085 5.000000 8.565500
154 1 12.197085 5.000000 12.826500
155 1 12.197085 5.000000 17.087500
156 1 12.197085 5.000000 21.348000
157 1 10.973368 5.000000 10.696000
158 1 10.973368 5.000000 14.957000
159 1 10.973368 5.000000 19.217500
160 1 10.973368 5.000000 23.478500
161 1 12.197085 5.000000 9.986000
162 1 12.197085 5.000000 14.246500
163 1 12.197085 5.000000 18.507500
164 1 12.197085 5.000000 22.768500
165 1 10.973368 5.000000 7.855500
166 1 10.973368 5.000000 12.116500
167 1 10.973368 5.000000 16.377000
168 1 10.973368 5.000000 20.638000
169 1 9.749650 5.000000 8.565500
170 1 9.749650 5.000000 12.826500
171 1 9.749650 5.000000 17.087500
172 1 9.749650 5.000000 21.348000
173 1 8.525933 5.000000 10.696000
174 1 8.525933 5.000000 14.957000
175 1 8.525933 5.000000 19.217500
176 1 8.525933 5.000000 23.478500
177 1 9.749650 5.000000 9.986000
178 1 9.749650 5.000000 14.246500
179 1 9.749650 5.000000 18.507500
180 1 9.749650 5.000000 22.768500
181 1 8.525933 5.000000 7.855500
182 1 8.525933 5.000000 12.116500
183 1 8.525933 5.000000 16.377000
184 1 8.525933 5.000000 20.638000
185 1 7.302216 5.000000 8.565500
186 1 7.302216 5.000000 12.826500
187 1 7.302216 5.000000 17.087500
188 1 7.302216 5.000000 21.348000
189 1 6.078498 5.000000 10.696000
190 1 6.078498 5.000000 14.957000
191 1 6.078498 5.000000 19.217500
192 1 6.078498 5.000000 23.478500
193 1 7.302216 5.000000 9.986000
194 1 7.302216 5.000000 14.246500
195 1 7.302216 5.000000 18.507500
196 1 7.302216 5.000000 22.768500
197 1 6.078498 5.000000 7.855500
198 1 6.078498 5.000000 12.116500
199 1 6.078498 5.000000 16.377000
200 1 6.078498 5.000000 20.638000
201 1 4.854781 5.000000 8.565500
202 1 4.854781 5.000000 12.826500
203 1 4.854781 5.000000 17.087500
204 1 4.854781 5.000000 21.348000
205 1 3.631235 5.000000 10.696000
206 1 3.631235 5.000000 14.957000
207 1 3.631235 5.000000 19.217500
208 1 3.631235 5.000000 23.478500
209 1 4.854781 5.000000 9.986000
210 1 4.854781 5.000000 14.246500
211 1 4.854781 5.000000 18.507500
212 1 4.854781 5.000000 22.768500
213 1 3.631235 5.000000 7.855500
214 1 3.631235 5.000000 12.116500
215 1 3.631235 5.000000 16.377000
216 1 3.631235 5.000000 20.638000
217 1 2.407518 5.000000 8.565500
218 1 2.407518 5.000000 12.826500
219 1 2.407518 5.000000 17.087500
220 1 2.407518 5.000000 21.348000
221 1 1.183800 5.000000 10.696000
222 1 1.183800 5.000000 14.957000
223 1 1.183800 5.000000 19.217500
224 1 1.183800 5.000000 23.478500
225 1 2.407518 5.000000 9.986000
226 1 2.407518 5.000000 14.246500
227 1 2.407518 5.000000 18.507500
228 1 2.407518 5.000000 22.768500
229 1 1.183800 5.000000 7.855500
230 1 1.183800 5.000000 12.116500
231 1 1.183800 5.000000 16.377000
232 1 1.183800 5.000000 20.638000
233 2 15.865667 5.000000 6.715500
234 2 13.423030 5.000000 6.715500
235 2 10.975766 5.000000 6.715500
236 2 8.528332 5.000000 6.715500
237 2 6.080897 5.000000 6.715500
238 2 3.633634 5.000000 6.715500
239 2 1.181402 5.000000 6.715500
240 2 12.235410 2.494371 23.500000
241 2 7.647292 3.037458 23.613417
242 2 3.864583 7.220954 25.988445
243 2 10.428018 4.680515 24.472725
244 2 14.586345 2.736294 26.806534
245 2 1.731901 2.211508 25.023231
246 2 12.664936 5.464849 26.806211
247 2 16.156616 8.955490 24.846480
248 2 13.837431 9.679290 25.497698
249 2 0.746957 0.151308 26.997518
250 2 2.738782 1.883819 27.311933
251 2 1.610380 6.977612 27.791531
252 2 15.643786 1.050978 24.983222
253 2 1.269117 4.901338 27.067906
254 2 9.003382 9.756942 28.086658
255 2 3.318881 9.656518 28.291197
256 2 1.185345 2.831872 28.946074
257 2 10.983965 0.905341 27.942731
258 2 16.675779 2.129542 34.795512
259 2 4.854501 5.449925 30.956188
260 2 1.072603 6.966035 31.070781
261 2 4.258752 3.862584 34.593175
262 2 10.784015 3.284724 34.477015
263 2 15.406778 5.812893 33.375232
264 2 14.268081 5.971999 32.654269
265 2 15.576448 7.067078 28.204269
266 2 5.281819 7.132564 28.078612
267 2 15.228011 8.159837 31.773021
268 1 6.931855 1.877139 24.977285
269 1 2.725778 4.189343 26.578667
270 1 6.343863 5.483853 24.710828
271 1 14.209661 5.805237 26.469880
272 1 0.560664 6.140091 28.256593
273 1 8.641093 9.781344 23.927694
274 1 6.744225 8.870504 24.437553
275 1 13.698534 3.284947 25.893328
276 1 3.342445 4.946518 25.555917
277 1 8.797759 4.618626 23.500000
278 1 13.461216 9.389612 27.961326
279 1 4.816093 0.434501 28.923756
280 1 4.858893 4.440506 28.176054
281 1 9.353698 4.596228 31.026960
282 1 2.689104 6.446366 32.031832
283 1 5.074789 7.406999 31.798508
284 1 8.949978 5.838844 31.853544
285 1 4.918305 5.839443 32.312177
286 1 16.159823 4.678574 25.217853
287 1 9.194883 5.813764 29.050840
288 1 11.022388 6.679931 30.894693
289 1 16.782749 7.854466 31.927657
290 1 0.759751 2.926825 32.187586
291 1 13.068762 1.453595 32.378815
292 1 1.022848 4.271259 34.373540
293 1 5.874404 8.049855 33.592093
294 1 15.156894 9.520562 30.298975
295 1 5.667236 8.391444 35.183939
296 1 16.444295 1.725988 33.947363
297 1 13.330808 3.003483 34.108815
298 1 3.869860 8.377574 33.832346
299 1 10.315390 7.662764 34.160412
300 1 2.331063 7.951935 34.680060
