300
Atoms. Timestep: 0
171557792              1.423397                     5             34.447708
171557792              1.423397                     5             36.907708
171557792              1.423397                     5             39.367708
171557792              1.423397                     5             41.827708
171557792              1.423397                     5             44.287708
171557792              1.423397                     5             46.747708
171557792              1.423397                     5             49.207708
171557792              3.564859                     5             33.217708
171557792              3.564859                     5             35.677708
171557792              3.564859                     5             38.137708
171557792              3.564859                     5             40.597708
171557792              3.564859                     5             43.057708
171557792              3.564859                     5             45.517708
171557792              3.564859                     5             47.977708
171557792              2.851153                     5             34.447708
171557792              2.851153                     5             36.907708
171557792              2.851153                     5             39.367708
171557792              2.851153                     5             41.827708
171557792              2.851153                     5             44.287708
171557792              2.851153                     5             46.747708
171557792              2.851153                     5             49.207708
171557792              4.992615                     5             33.217708
171557792              4.992615                     5             35.677708
171557792              4.992615                     5             38.137708
171557792              4.992615                     5             40.597708
171557792              4.992615                     5             43.057708
171557792              4.992615                     5             45.517708
171557792              4.992615                     5             47.977708
171557792              5.706322                     5             34.447708
171557792              5.706322                     5             36.907708
171557760              5.706322                     5             39.367708
171557760              5.706322                     5             41.827708
171557760              5.706322                     5             44.287708
171557760              5.706322                     5             46.747708
171557760              5.706322                     5             49.207708
171557760              7.847784                     5             33.217708
171557760              7.847784                     5             35.677708
171557760              7.847784                     5             38.137708
171557760              7.847784                     5             40.597708
171557760              7.847784                     5             43.057708
171557760              7.847784                     5             45.517708
171557760              7.847784                     5             47.977708
171557760              7.134078                     5             34.447708
171557760              7.134078                     5             36.907708
171557760              7.134078                     5             39.367708
171557760              7.134078                     5             41.827708
171557760              7.134078                     5             44.287708
171557760              7.134078                     5             46.747708
171557760              7.134078                     5             49.207708
171557760               9.27554                     5             33.217708
171557760               9.27554                     5             35.677708
171557760               9.27554                     5             38.137708
171557760               9.27554                     5             40.597708
171557760               9.27554                     5             43.057708
171557760               9.27554                     5             45.517708
171557760               9.27554                     5             47.977708
171557760              9.989247                     5             34.447708
171557760              9.989247                     5             36.907708
171557760              9.989247                     5             39.367708
171557760              9.989247                     5             41.827708
171557760              9.989247                     5             44.287708
171557760              9.989247                     5             46.747708
171557760              9.989247                     5             49.207708
171557760             12.130709                     5             33.217708
171557760             12.130709                     5             35.677708
171557760             12.130709                     5             38.137708
171557760             12.130709                     5             40.597708
171557760             12.130709                     5             43.057708
171557760             12.130709                     5             45.517708
171557760             12.130709                     5             47.977708
171557760             11.417003                     5             34.447708
171557760             11.417003                     5             36.907708
171557760             11.417003                     5             39.367708
171557760             11.417003                     5             41.827708
171557760             11.417003                     5             44.287708
171557760             11.417003                     5             46.747708
171557760             11.417003                     5             49.207708
171557760             13.558465                     5             33.217708
171557760             13.558465                     5             35.677708
171557760             13.558465                     5             38.137708
171557760             13.558465                     5             40.597708
171557760             13.558465                     5             43.057708
171557760             13.558465                     5             45.517708
171557760             13.558465                     5             47.977708
171557760             14.272172                     5             34.447708
171557760             14.272172                     5             36.907708
171557760             14.272172                     5             39.367708
171557760             14.272172                     5             41.827708
171557760             14.272172                     5             44.287708
171557760             14.272172                     5             46.747708
171557760             14.272172                     5             49.207708
171557760             16.413634                     5             33.217708
171557760             16.413634                     5             35.677708
171557760             16.413634                     5             38.137708
171557760             16.413634                     5             40.597708
171557760             16.413634                     5             43.057708
171557760             16.413634                     5             45.517708
171557760             16.413634                     5             47.977708
171557760             15.699928                     5             34.447708
171557760             15.699928                     5             36.907708
171557760             15.699928                     5             39.367708
171557760             15.699928                     5             41.827708
171557760             15.699928                     5             44.287708
171557760             15.699928                     5             46.747708
171557760             15.699928                     5             49.207708
171557760               0.70969                     5             33.217708
171557760               0.70969                     5             35.677708
171557760               0.70969                     5             38.137708
171557760               0.70969                     5             40.597708
171557760               0.70969                     5             43.057708
171557760               0.70969                     5             45.517708
171557760               0.70969                     5             47.977708
171557792              0.853254                     5     0.195208000000001
171557792              3.421124                     5     0.195208000000001
171557792              5.138406                     5     0.196207999999999
171557792              7.704049                     5     0.195208000000001
171557792              9.421331                     5     0.196207999999999
171557792             11.986974                     5     0.195208000000001
171557792             13.704256                     5     0.196207999999999
171557792             16.269899                     5     0.195208000000001
171557760             17.091783                     5                8.5655
171557760             17.091783                     5               12.8265
171557760             17.091783                     5               17.0875
171557760             17.091783                     5                21.348
171557760             17.091783                     5                 9.986
171557760             17.091783                     5               14.2465
171557760             17.091783                     5               18.5075
171557760             17.091783                     5               22.7685
171557760             15.868066                     5                10.696
171557760             15.868066                     5                14.957
171557760             15.868066                     5               19.2175
171557760             15.868066                     5               23.4785
171557760             15.868066                     5                7.8555
171557760             15.868066                     5               12.1165
171557760             15.868066                     5                16.377
171557760             15.868066                     5                20.638
171557760             14.644348                     5                8.5655
171557760             14.644348                     5               12.8265
171557760             14.644348                     5               17.0875
171557760             14.644348                     5                21.348
171557760             13.420631                     5                10.696
171557760             13.420631                     5                14.957
171557760             13.420631                     5               19.2175
171557760             13.420631                     5               23.4785
171557760             14.644348                     5                 9.986
171557760             14.644348                     5               14.2465
171557760             14.644348                     5               18.5075
171557760             14.644348                     5               22.7685
171557760             13.420631                     5                7.8555
171557760             13.420631                     5               12.1165
171557760             13.420631                     5                16.377
171557760             13.420631                     5                20.638
171557760             12.197085                     5                8.5655
171557760             12.197085                     5               12.8265
171557760             12.197085                     5               17.0875
171557760             12.197085                     5                21.348
171557760             10.973368                     5                10.696
171557760             10.973368                     5                14.957
171557760             10.973368                     5               19.2175
171557760             10.973368                     5               23.4785
171557760             12.197085                     5                 9.986
171557760             12.197085                     5               14.2465
171557760             12.197085                     5               18.5075
171557760             12.197085                     5               22.7685
171557760             10.973368                     5                7.8555
171557760             10.973368                     5               12.1165
171557760             10.973368                     5                16.377
171557760             10.973368                     5                20.638
171557760               9.74965                     5                8.5655
171557760               9.74965                     5               12.8265
171557760               9.74965                     5               17.0875
171557760               9.74965                     5                21.348
171557760              8.525933                     5                10.696
171557760              8.525933                     5                14.957
171557760              8.525933                     5               19.2175
171557760              8.525933                     5               23.4785
171557760               9.74965                     5                 9.986
171557760               9.74965                     5               14.2465
171557760               9.74965                     5               18.5075
171557760               9.74965                     5               22.7685
171557760              8.525933                     5                7.8555
171557760              8.525933                     5               12.1165
171557760              8.525933                     5                16.377
171557760              8.525933                     5                20.638
171557760              7.302216                     5                8.5655
171557760              7.302216                     5               12.8265
171557760              7.302216                     5               17.0875
171557760              7.302216                     5                21.348
171557760              6.078498                     5                10.696
171557760              6.078498                     5                14.957
171557760              6.078498                     5               19.2175
171557760              6.078498                     5               23.4785
171557760              7.302216                     5                 9.986
171557760              7.302216                     5               14.2465
171557760              7.302216                     5               18.5075
171557760              7.302216                     5               22.7685
171557760              6.078498                     5                7.8555
171557760              6.078498                     5               12.1165
171557760              6.078498                     5                16.377
171557760              6.078498                     5                20.638
171557760              4.854781                     5                8.5655
171557760              4.854781                     5               12.8265
171557760              4.854781                     5               17.0875
171557760              4.854781                     5                21.348
171557760              3.631235                     5                10.696
171557760              3.631235                     5                14.957
171557760              3.631235                     5               19.2175
171557760              3.631235                     5               23.4785
171557760              4.854781                     5                 9.986
171557760              4.854781                     5               14.2465
171557760              4.854781                     5               18.5075
171557760              4.854781                     5               22.7685
171557760              3.631235                     5                7.8555
171557760              3.631235                     5               12.1165
171557760              3.631235                     5                16.377
171557760              3.631235                     5                20.638
171557760              2.407518                     5                8.5655
171557760              2.407518                     5               12.8265
171557760              2.407518                     5               17.0875
171557760              2.407518                     5                21.348
171557760                1.1838                     5                10.696
171557760                1.1838                     5                14.957
171557760                1.1838                     5               19.2175
171557760                1.1838                     5               23.4785
171557760              2.407518                     5                 9.986
171557760              2.407518                     5               14.2465
171557760              2.407518                     5               18.5075
171557760              2.407518                     5               22.7685
171557760                1.1838                     5                7.8555
171557760                1.1838                     5               12.1165
171557760                1.1838                     5                16.377
171557760                1.1838                     5                20.638
171557792             15.865667                     5                6.7155
171557792              13.42303                     5                6.7155
171557792             10.975766                     5                6.7155
171557792              8.528332                     5                6.7155
171557792              6.080897                     5                6.7155
171557792              3.633634                     5                6.7155
171557792              1.181402                     5                6.7155
171557792              7.927553              0.742931             25.937284
171557792              8.835841              4.891695             27.452251
171557792              4.374514              7.995591             24.860252
171557792               7.20502              9.155214             24.768217
171557792              9.717471              2.046043              25.49831
171557792             13.544347              3.393306             24.100997
171557792             14.624099              5.531615             27.424934
171557792             13.841708              7.122066              25.74859
171557792             16.864005              7.490583             24.175175
171557792              7.689913              1.358982             29.620165
171557792              5.976971              7.080767             29.329039
171557792              0.373472              7.996955             27.973663
171557792              4.772303              8.133067             27.750876
171557792              9.736301              1.110952             27.686718
171557792              12.42389              3.470694             28.032421
171557792             14.590796              4.656023             30.266387
171557792             12.999615              8.492687             28.060892
171557792             12.976609               9.47866             28.190882
171557792              8.949147              0.117576               32.2376
171557792              1.976078              2.534026             31.159752
171557792              8.248964              3.204797             30.716213
171557792              4.540908              3.266935             32.305827
171557792              8.337657              7.418832             32.813799
171557792              9.669077              0.450801             31.742085
171557792             14.076733              3.682747              32.81781
171557792             14.574727              5.080513             32.692598
171557792              9.239099              5.832885             32.753337
171557792             14.298362              8.228415             32.684353
171557760              0.699818              0.912796             25.676818
171557760              2.013133              2.009035             25.752478
171557760              3.259582              4.757698             26.158673
171557760              2.916683              6.999793             25.888549
171557760              0.083298              9.113055             26.213396
171557760              4.966033              2.146738             26.073399
171557760             14.036511              2.644345             23.906497
171557760             12.439606              4.139397             24.389136
171557760             10.511702              6.106961             25.694562
171557760             15.077783              8.529948             24.176309
171557760              6.560726              9.470326             25.802401
171557760              8.349795              0.746116             27.242315
171557760              6.096823              2.819519             26.261572
171557760             11.124632              3.708133             26.786852
171557760             11.123062              8.728679             26.343848
171557760              4.625989               9.25471             27.548585
171557760             14.399111              0.185764             26.667457
171557760             12.829112              5.443096             26.567167
171557760             13.935196              5.886428             26.486882
171557760             12.780179              6.127971             27.691394
171557760             11.904017              7.445341              29.05312
171557760             14.764634              7.501106             27.966747
171557760              4.471145               0.22678             32.202834
171557760             11.185859              0.917028             30.478047
171557760              5.819792              2.466281              31.34228
171557760              0.065012              3.316478             32.888637
171557760              5.102987              8.079773             29.983534
171557760             16.753534              0.370037             32.942182
171557760             14.531034              0.504469             33.113758
171557760             15.697835              1.798411             32.935448
171557760             17.031696               7.69381             32.977348
171557760             12.873499              7.841802             29.620353
171557760             13.036492              9.475597             32.884946
300
Atoms. Timestep: 8
171557792      1.42633359950582                     5      34.4488096751249
171557792      1.42633359950582                     5      36.9088096751249
171557792      1.42633359950582                     5      39.3688096751249
171557792      1.42633359950582                     5      41.8288096751249
171557792      1.42633359950582                     5      44.2888096751249
171557792      1.42633359950582                     5      46.7488096751249
171557792      1.42633359950582                     5      49.2088096751249
171557792      3.56779559950582                     5      33.2188096751249
171557792      3.56779559950582                     5      35.6788096751249
171557792      3.56779559950582                     5      38.1388096751249
171557792      3.56779559950582                     5      40.5988096751249
171557792      3.56779559950582                     5      43.0588096751249
171557792      3.56779559950582                     5      45.5188096751249
171557792      3.56779559950582                     5      47.9788096751249
171557792      2.85408959950582                     5      34.4488096751249
171557792      2.85408959950582                     5      36.9088096751249
171557792      2.85408959950582                     5      39.3688096751249
171557792      2.85408959950582                     5      41.8288096751249
171557792      2.85408959950582                     5      44.2888096751249
171557792      2.85408959950582                     5      46.7488096751249
171557792      2.85408959950582                     5      49.2088096751249
171557792      4.99555159950582                     5      33.2188096751249
171557792      4.99555159950582                     5      35.6788096751249
171557792      4.99555159950582                     5      38.1388096751249
171557792      4.99555159950582                     5      40.5988096751249
171557792      4.99555159950582                     5      43.0588096751249
171557792      4.99555159950582                     5      45.5188096751249
171557792      4.99555159950582                     5      47.9788096751249
171557792      5.70925859950582                     5      34.4488096751249
171557792      5.70925859950582                     5      36.9088096751249
171557760      5.70925859950582                     5      39.3688096751249
171557760      5.70925859950582                     5      41.8288096751249
171557760      5.70925859950582                     5      44.2888096751249
171557760      5.70925859950582                     5      46.7488096751249
171557760      5.70925859950582                     5      49.2088096751249
171557760      7.85072059950582                     5      33.2188096751249
171557760      7.85072059950582                     5      35.6788096751249
171557760      7.85072059950582                     5      38.1388096751249
171557760      7.85072059950582                     5      40.5988096751249
171557760      7.85072059950582                     5      43.0588096751249
171557760      7.85072059950582                     5      45.5188096751249
171557760      7.85072059950582                     5      47.9788096751249
171557760      7.13701459950582                     5      34.4488096751249
171557760      7.13701459950582                     5      36.9088096751249
171557760      7.13701459950582                     5      39.3688096751249
171557760      7.13701459950582                     5      41.8288096751249
171557760      7.13701459950582                     5      44.2888096751249
171557760      7.13701459950582                     5      46.7488096751249
171557760      7.13701459950582                     5      49.2088096751249
171557760      9.27847659950582                     5      33.2188096751249
171557760      9.27847659950582                     5      35.6788096751249
171557760      9.27847659950582                     5      38.1388096751249
171557760      9.27847659950582                     5      40.5988096751249
171557760      9.27847659950582                     5      43.0588096751249
171557760      9.27847659950582                     5      45.5188096751249
171557760      9.27847659950582                     5      47.9788096751249
171557760      9.99218359950583                     5      34.4488096751249
171557760      9.99218359950583                     5      36.9088096751249
171557760      9.99218359950583                     5      39.3688096751249
171557760      9.99218359950583                     5      41.8288096751249
171557760      9.99218359950583                     5      44.2888096751249
171557760      9.99218359950583                     5      46.7488096751249
171557760      9.99218359950583                     5      49.2088096751249
171557760      12.1336455995058                     5      33.2188096751249
171557760      12.1336455995058                     5      35.6788096751249
171557760      12.1336455995058                     5      38.1388096751249
171557760      12.1336455995058                     5      40.5988096751249
171557760      12.1336455995058                     5      43.0588096751249
171557760      12.1336455995058                     5      45.5188096751249
171557760      12.1336455995058                     5      47.9788096751249
171557760      11.4199395995058                     5      34.4488096751249
171557760      11.4199395995058                     5      36.9088096751249
171557760      11.4199395995058                     5      39.3688096751249
171557760      11.4199395995058                     5      41.8288096751249
171557760      11.4199395995058                     5      44.2888096751249
171557760      11.4199395995058                     5      46.7488096751249
171557760      11.4199395995058                     5      49.2088096751249
171557760      13.5614015995058                     5      33.2188096751249
171557760      13.5614015995058                     5      35.6788096751249
171557760      13.5614015995058                     5      38.1388096751249
171557760      13.5614015995058                     5      40.5988096751249
171557760      13.5614015995058                     5      43.0588096751249
171557760      13.5614015995058                     5      45.5188096751249
171557760      13.5614015995058                     5      47.9788096751249
171557760      14.2751085995058                     5      34.4488096751249
171557760      14.2751085995058                     5      36.9088096751249
171557760      14.2751085995058                     5      39.3688096751249
171557760      14.2751085995058                     5      41.8288096751249
171557760      14.2751085995058                     5      44.2888096751249
171557760      14.2751085995058                     5      46.7488096751249
171557760      14.2751085995058                     5      49.2088096751249
171557760      16.4165705995058                     5      33.2188096751249
171557760      16.4165705995058                     5      35.6788096751249
171557760      16.4165705995058                     5      38.1388096751249