search structure

300 atoms
2  atom types

0   17.131700 xlo xhi
0   10.000000 ylo yhi
0   50.000000 zlo zhi

Atoms

1 2 1.423397 5.000000 34.447708
2 2 1.423397 5.000000 36.907708
3 2 1.423397 5.000000 39.367708
4 2 1.423397 5.000000 41.827708
5 2 1.423397 5.000000 44.287708
6 2 1.423397 5.000000 46.747708
7 2 1.423397 5.000000 49.207708
8 2 3.564859 5.000000 33.217708
9 2 3.564859 5.000000 35.677708
10 2 3.564859 5.000000 38.137708
11 2 3.564859 5.000000 40.597708
12 2 3.564859 5.000000 43.057708
13 2 3.564859 5.000000 45.517708
14 2 3.564859 5.000000 47.977708
15 2 2.851153 5.000000 34.447708
16 2 2.851153 5.000000 36.907708
17 2 2.851153 5.000000 39.367708
18 2 2.851153 5.000000 41.827708
19 2 2.851153 5.000000 44.287708
20 2 2.851153 5.000000 46.747708
21 2 2.851153 5.000000 49.207708
22 2 4.992615 5.000000 33.217708
23 2 4.992615 5.000000 35.677708
24 2 4.992615 5.000000 38.137708
25 2 4.992615 5.000000 40.597708
26 2 4.992615 5.000000 43.057708
27 2 4.992615 5.000000 45.517708
28 2 4.992615 5.000000 47.977708
29 2 5.706322 5.000000 34.447708
30 2 5.706322 5.000000 36.907708
31 1 5.706322 5.000000 39.367708
32 1 5.706322 5.000000 41.827708
33 1 5.706322 5.000000 44.287708
34 1 5.706322 5.000000 46.747708
35 1 5.706322 5.000000 49.207708
36 1 7.847784 5.000000 33.217708
37 1 7.847784 5.000000 35.677708
38 1 7.847784 5.000000 38.137708
39 1 7.847784 5.000000 40.597708
40 1 7.847784 5.000000 43.057708
41 1 7.847784 5.000000 45.517708
42 1 7.847784 5.000000 47.977708
43 1 7.134078 5.000000 34.447708
44 1 7.134078 5.000000 36.907708
45 1 7.134078 5.000000 39.367708
46 1 7.134078 5.000000 41.827708
47 1 7.134078 5.000000 44.287708
48 1 7.134078 5.000000 46.747708
49 1 7.134078 5.000000 49.207708
50 1 9.275540 5.000000 33.217708
51 1 9.275540 5.000000 35.677708
52 1 9.275540 5.000000 38.137708
53 1 9.275540 5.000000 40.597708
54 1 9.275540 5.000000 43.057708
55 1 9.275540 5.000000 45.517708
56 1 9.275540 5.000000 47.977708
57 1 9.989247 5.000000 34.447708
58 1 9.989247 5.000000 36.907708
59 1 9.989247 5.000000 39.367708
60 1 9.989247 5.000000 41.827708
61 1 9.989247 5.000000 44.287708
62 1 9.989247 5.000000 46.747708
63 1 9.989247 5.000000 49.207708
64 1 12.130709 5.000000 33.217708
65 1 12.130709 5.000000 35.677708
66 1 12.130709 5.000000 38.137708
67 1 12.130709 5.000000 40.597708
68 1 12.130709 5.000000 43.057708
69 1 12.130709 5.000000 45.517708
70 1 12.130709 5.000000 47.977708
71 1 11.417003 5.000000 34.447708
72 1 11.417003 5.000000 36.907708
73 1 11.417003 5.000000 39.367708
74 1 11.417003 5.000000 41.827708
75 1 11.417003 5.000000 44.287708
76 1 11.417003 5.000000 46.747708
77 1 11.417003 5.000000 49.207708
78 1 13.558465 5.000000 33.217708
79 1 13.558465 5.000000 35.677708
80 1 13.558465 5.000000 38.137708
81 1 13.558465 5.000000 40.597708
82 1 13.558465 5.000000 43.057708
83 1 13.558465 5.000000 45.517708
84 1 13.558465 5.000000 47.977708
85 1 14.272172 5.000000 34.447708
86 1 14.272172 5.000000 36.907708
87 1 14.272172 5.000000 39.367708
88 1 14.272172 5.000000 41.827708
89 1 14.272172 5.000000 44.287708
90 1 14.272172 5.000000 46.747708
91 1 14.272172 5.000000 49.207708
92 1 16.413634 5.000000 33.217708
93 1 16.413634 5.000000 35.677708
94 1 16.413634 5.000000 38.137708
95 1 16.413634 5.000000 40.597708
96 1 16.413634 5.000000 43.057708
97 1 16.413634 5.000000 45.517708
98 1 16.413634 5.000000 47.977708
99 1 15.699928 5.000000 34.447708
100 1 15.699928 5.000000 36.907708
101 1 15.699928 5.000000 39.367708
102 1 15.699928 5.000000 41.827708
103 1 15.699928 5.000000 44.287708
104 1 15.699928 5.000000 46.747708
105 1 15.699928 5.000000 49.207708
106 1 0.709690 5.000000 33.217708
107 1 0.709690 5.000000 35.677708
108 1 0.709690 5.000000 38.137708
109 1 0.709690 5.000000 40.597708
110 1 0.709690 5.000000 43.057708
111 1 0.709690 5.000000 45.517708
112 1 0.709690 5.000000 47.977708
113 2 0.853254 5.000000 50.195208
114 2 3.421124 5.000000 50.195208
115 2 5.138406 5.000000 50.196208
116 2 7.704049 5.000000 50.195208
117 2 9.421331 5.000000 50.196208
118 2 11.986974 5.000000 50.195208
119 2 13.704256 5.000000 50.196208
120 2 16.269899 5.000000 50.195208
121 1 -0.039917 5.000000 8.565500
122 1 -0.039917 5.000000 12.826500
123 1 -0.039917 5.000000 17.087500
124 1 -0.039917 5.000000 21.348000
125 1 -0.039917 5.000000 9.986000
126 1 -0.039917 5.000000 14.246500
127 1 -0.039917 5.000000 18.507500
128 1 -0.039917 5.000000 22.768500
129 1 15.868066 5.000000 10.696000
130 1 15.868066 5.000000 14.957000
131 1 15.868066 5.000000 19.217500
132 1 15.868066 5.000000 23.478500
133 1 15.868066 5.000000 7.855500
134 1 15.868066 5.000000 12.116500
135 1 15.868066 5.000000 16.377000
136 1 15.868066 5.000000 20.638000
137 1 14.644348 5.000000 8.565500
138 1 14.644348 5.000000 12.826500
139 1 14.644348 5.000000 17.087500
140 1 14.644348 5.000000 21.348000
141 1 13.420631 5.000000 10.696000
142 1 13.420631 5.000000 14.957000
143 1 13.420631 5.000000 19.217500
144 1 13.420631 5.000000 23.478500
145 1 14.644348 5.000000 9.986000
146 1 14.644348 5.000000 14.246500
147 1 14.644348 5.000000 18.507500
148 1 14.644348 5.000000 22.768500
149 1 13.420631 5.000000 7.855500
150 1 13.420631 5.000000 12.116500
151 1 13.420631 5.000000 16.377000
152 1 13.420631 5.000000 20.638000
153 1 12.197085 5.000000 8.565500
154 1 12.197085 5.000000 12.826500
155 1 12.197085 5.000000 17.087500
156 1 12.197085 5.000000 21.348000
157 1 10.973368 5.000000 10.696000
158 1 10.973368 5.000000 14.957000
159 1 10.973368 5.000000 19.217500
160 1 10.973368 5.000000 23.478500
161 1 12.197085 5.000000 9.986000
162 1 12.197085 5.000000 14.246500
163 1 12.197085 5.000000 18.507500
164 1 12.197085 5.000000 22.768500
165 1 10.973368 5.000000 7.855500
166 1 10.973368 5.000000 12.116500
167 1 10.973368 5.000000 16.377000
168 1 10.973368 5.000000 20.638000
169 1 9.749650 5.000000 8.565500
170 1 9.749650 5.000000 12.826500
171 1 9.749650 5.000000 17.087500
172 1 9.749650 5.000000 21.348000
173 1 8.525933 5.000000 10.696000
174 1 8.525933 5.000000 14.957000
175 1 8.525933 5.000000 19.217500
176 1 8.525933 5.000000 23.478500
177 1 9.749650 5.000000 9.986000
178 1 9.749650 5.000000 14.246500
179 1 9.749650 5.000000 18.507500
180 1 9.749650 5.000000 22.768500
181 1 8.525933 5.000000 7.855500
182 1 8.525933 5.000000 12.116500
183 1 8.525933 5.000000 16.377000
184 1 8.525933 5.000000 20.638000
185 1 7.302216 5.000000 8.565500
186 1 7.302216 5.000000 12.826500
187 1 7.302216 5.000000 17.087500
188 1 7.302216 5.000000 21.348000
189 1 6.078498 5.000000 10.696000
190 1 6.078498 5.000000 14.957000
191 1 6.078498 5.000000 19.217500
192 1 6.078498 5.000000 23.478500
193 1 7.302216 5.000000 9.986000
194 1 7.302216 5.000000 14.246500
195 1 7.302216 5.000000 18.507500
196 1 7.302216 5.000000 22.768500
197 1 6.078498 5.000000 7.855500
198 1 6.078498 5.000000 12.116500
199 1 6.078498 5.000000 16.377000
200 1 6.078498 5.000000 20.638000
201 1 4.854781 5.000000 8.565500
202 1 4.854781 5.000000 12.826500
203 1 4.854781 5.000000 17.087500
204 1 4.854781 5.000000 21.348000
205 1 3.631235 5.000000 10.696000
206 1 3.631235 5.000000 14.957000
207 1 3.631235 5.000000 19.217500
208 1 3.631235 5.000000 23.478500
209 1 4.854781 5.000000 9.986000
210 1 4.854781 5.000000 14.246500
211 1 4.854781 5.000000 18.507500
212 1 4.854781 5.000000 22.768500
213 1 3.631235 5.000000 7.855500
214 1 3.631235 5.000000 12.116500
215 1 3.631235 5.000000 16.377000
216 1 3.631235 5.000000 20.638000
217 1 2.407518 5.000000 8.565500
218 1 2.407518 5.000000 12.826500
219 1 2.407518 5.000000 17.087500
220 1 2.407518 5.000000 21.348000
221 1 1.183800 5.000000 10.696000
222 1 1.183800 5.000000 14.957000
223 1 1.183800 5.000000 19.217500
224 1 1.183800 5.000000 23.478500
225 1 2.407518 5.000000 9.986000
226 1 2.407518 5.000000 14.246500
227 1 2.407518 5.000000 18.507500
228 1 2.407518 5.000000 22.768500
229 1 1.183800 5.000000 7.855500
230 1 1.183800 5.000000 12.116500
231 1 1.183800 5.000000 16.377000
232 1 1.183800 5.000000 20.638000
233 2 15.865667 5.000000 6.715500
234 2 13.423030 5.000000 6.715500
235 2 10.975766 5.000000 6.715500
236 2 8.528332 5.000000 6.715500
237 2 6.080897 5.000000 6.715500
238 2 3.633634 5.000000 6.715500
239 2 1.181402 5.000000 6.715500
240 2 7.927553 0.742931 25.937284
241 2 8.835841 4.891695 27.452251
242 2 4.374514 7.995591 24.860252
243 2 7.205020 9.155214 24.768217
244 2 9.717471 2.046043 25.498310
245 2 13.544347 3.393306 24.100997
246 2 14.624099 5.531615 27.424934
247 2 13.841708 7.122066 25.748590
248 2 16.864005 7.490583 24.175175
249 2 7.689913 1.358982 29.620165
250 2 5.976971 7.080767 29.329039
251 2 0.373472 7.996955 27.973663
252 2 4.772303 8.133067 27.750876
253 2 9.736301 1.110952 27.686718
254 2 12.423890 3.470694 28.032421
255 2 14.590796 4.656023 30.266387
256 2 12.999615 8.492687 28.060892
257 2 12.976609 9.478660 28.190882
258 2 8.949147 0.117576 32.237600
259 2 1.976078 2.534026 31.159752
260 2 8.248964 3.204797 30.716213
261 2 4.540908 3.266935 32.305827
262 2 8.337657 7.418832 32.813799
263 2 9.669077 0.450801 31.742085
264 2 14.076733 3.682747 32.817810
265 2 14.574727 5.080513 32.692598
266 2 9.239099 5.832885 32.753337
267 2 14.298362 8.228415 32.684353
268 1 0.699818 0.912796 25.676818
269 1 2.013133 2.009035 25.752478
270 1 3.259582 4.757698 26.158673
271 1 2.916683 6.999793 25.888549
272 1 0.083298 9.113055 26.213396
273 1 4.966033 2.146738 26.073399
274 1 14.036511 2.644345 23.906497
275 1 12.439606 4.139397 24.389136
276 1 10.511702 6.106961 25.694562
277 1 15.077783 8.529948 24.176309
278 1 6.560726 9.470326 25.802401
279 1 8.349795 0.746116 27.242315
280 1 6.096823 2.819519 26.261572
281 1 11.124632 3.708133 26.786852
282 1 11.123062 8.728679 26.343848
283 1 4.625989 9.254710 27.548585
284 1 14.399111 0.185764 26.667457
285 1 12.829112 5.443096 26.567167
286 1 13.935196 5.886428 26.486882
287 1 12.780179 6.127971 27.691394
288 1 11.904017 7.445341 29.053120
289 1 14.764634 7.501106 27.966747
290 1 4.471145 0.226780 32.202834
291 1 11.185859 0.917028 30.478047
292 1 5.819792 2.466281 31.342280
293 1 0.065012 3.316478 32.888637
294 1 5.102987 8.079773 29.983534
295 1 16.753534 0.370037 32.942182
296 1 14.531034 0.504469 33.113758
297 1 15.697835 1.798411 32.935448
298 1 17.031696 7.693810 32.977348
299 1 12.873499 7.841802 29.620353
300 1 13.036492 9.475597 32.884946
