300
Atoms. Timestep: 0
143565728              15.96411                     5             34.430772
143565728              15.96411                     5             36.890772
143565728              15.96411                     5             39.350772
143565728              15.96411                     5             41.810772
143565728              15.96411                     5             44.270772
143565728              15.96411                     5             46.730772
143565728              15.96411                     5             49.190772
143565728              0.973872                     5             33.200772
143565728              0.973872                     5             35.660772
143565728              0.973872                     5             38.120772
143565728              0.973872                     5             40.580772
143565728              0.973872                     5             43.040772
143565728              0.973872                     5             45.500772
143565728              0.973872                     5             47.960772
143565728              0.260165                     5             34.430772
143565728              0.260165                     5             36.890772
143565728              0.260165                     5             39.350772
143565728              0.260165                     5             41.810772
143565728              0.260165                     5             44.270772
143565728              0.260165                     5             46.730772
143565728              0.260165                     5             49.190772
143565728              2.401628                     5             33.200772
143565728              2.401628                     5             35.660772
143565728              2.401628                     5             38.120772
143565728              2.401628                     5             40.580772
143565728              2.401628                     5             43.040772
143565728              2.401628                     5             45.500772
143565728              2.401628                     5             47.960772
143565728              3.115335                     5             34.430772
143565728              3.115335                     5             36.890772
143565696              3.115335                     5             39.350772
143565696              3.115335                     5             41.810772
143565696              3.115335                     5             44.270772
143565696              3.115335                     5             46.730772
143565696              3.115335                     5             49.190772
143565696              5.256797                     5             33.200772
143565696              5.256797                     5             35.660772
143565696              5.256797                     5             38.120772
143565696              5.256797                     5             40.580772
143565696              5.256797                     5             43.040772
143565696              5.256797                     5             45.500772
143565696              5.256797                     5             47.960772
143565696               4.54309                     5             34.430772
143565696               4.54309                     5             36.890772
143565696               4.54309                     5             39.350772
143565696               4.54309                     5             41.810772
143565696               4.54309                     5             44.270772
143565696               4.54309                     5             46.730772
143565696               4.54309                     5             49.190772
143565696              6.684553                     5             33.200772
143565696              6.684553                     5             35.660772
143565696              6.684553                     5             38.120772
143565696              6.684553                     5             40.580772
143565696              6.684553                     5             43.040772
143565696              6.684553                     5             45.500772
143565696              6.684553                     5             47.960772
143565696               7.39826                     5             34.430772
143565696               7.39826                     5             36.890772
143565696               7.39826                     5             39.350772
143565696               7.39826                     5             41.810772
143565696               7.39826                     5             44.270772
143565696               7.39826                     5             46.730772
143565696               7.39826                     5             49.190772
143565696              9.539722                     5             33.200772
143565696              9.539722                     5             35.660772
143565696              9.539722                     5             38.120772
143565696              9.539722                     5             40.580772
143565696              9.539722                     5             43.040772
143565696              9.539722                     5             45.500772
143565696              9.539722                     5             47.960772
143565696              8.826015                     5             34.430772
143565696              8.826015                     5             36.890772
143565696              8.826015                     5             39.350772
143565696              8.826015                     5             41.810772
143565696              8.826015                     5             44.270772
143565696              8.826015                     5             46.730772
143565696              8.826015                     5             49.190772
143565696             10.967478                     5             33.200772
143565696             10.967478                     5             35.660772
143565696             10.967478                     5             38.120772
143565696             10.967478                     5             40.580772
143565696             10.967478                     5             43.040772
143565696             10.967478                     5             45.500772
143565696             10.967478                     5             47.960772
143565696             11.681185                     5             34.430772
143565696             11.681185                     5             36.890772
143565696             11.681185                     5             39.350772
143565696             11.681185                     5             41.810772
143565696             11.681185                     5             44.270772
143565696             11.681185                     5             46.730772
143565696             11.681185                     5             49.190772
143565696             13.822647                     5             33.200772
143565696             13.822647                     5             35.660772
143565696             13.822647                     5             38.120772
143565696             13.822647                     5             40.580772
143565696             13.822647                     5             43.040772
143565696             13.822647                     5             45.500772
143565696             13.822647                     5             47.960772
143565696              13.10894                     5             34.430772
143565696              13.10894                     5             36.890772
143565696              13.10894                     5             39.350772
143565696              13.10894                     5             41.810772
143565696              13.10894                     5             44.270772
143565696              13.10894                     5             46.730772
143565696              13.10894                     5             49.190772
143565696             15.250403                     5             33.200772
143565696             15.250403                     5             35.660772
143565696             15.250403                     5             38.120772
143565696             15.250403                     5             40.580772
143565696             15.250403                     5             43.040772
143565696             15.250403                     5             45.500772
143565696             15.250403                     5             47.960772
143565728             15.393967                     5              0.178272
143565728              0.830137                     5              0.178272
143565728              2.547419                     5     0.179271999999997
143565728              5.113062                     5              0.178272
143565728              6.830344                     5     0.179271999999997
143565728              9.395987                     5              0.178272
143565728             11.113269                     5     0.179271999999997
143565728             13.678912                     5              0.178272
143565696             17.091783                     5                8.5655
143565696             17.091783                     5               12.8265
143565696             17.091783                     5               17.0875
143565696             17.091783                     5                21.348
143565696             17.091783                     5                 9.986
143565696             17.091783                     5               14.2465
143565696             17.091783                     5               18.5075
143565696             17.091783                     5               22.7685
143565696             15.868066                     5                10.696
143565696             15.868066                     5                14.957
143565696             15.868066                     5               19.2175
143565696             15.868066                     5               23.4785
143565696             15.868066                     5                7.8555
143565696             15.868066                     5               12.1165
143565696             15.868066                     5                16.377
143565696             15.868066                     5                20.638
143565696             14.644348                     5                8.5655
143565696             14.644348                     5               12.8265
143565696             14.644348                     5               17.0875
143565696             14.644348                     5                21.348
143565696             13.420631                     5                10.696
143565696             13.420631                     5                14.957
143565696             13.420631                     5               19.2175
143565696             13.420631                     5               23.4785
143565696             14.644348                     5                 9.986
143565696             14.644348                     5               14.2465
143565696             14.644348                     5               18.5075
143565696             14.644348                     5               22.7685
143565696             13.420631                     5                7.8555
143565696             13.420631                     5               12.1165
143565696             13.420631                     5                16.377
143565696             13.420631                     5                20.638
143565696             12.197085                     5                8.5655
143565696             12.197085                     5               12.8265
143565696             12.197085                     5               17.0875
143565696             12.197085                     5                21.348
143565696             10.973368                     5                10.696
143565696             10.973368                     5                14.957
143565696             10.973368                     5               19.2175
143565696             10.973368                     5               23.4785
143565696             12.197085                     5                 9.986
143565696             12.197085                     5               14.2465
143565696             12.197085                     5               18.5075
143565696             12.197085                     5               22.7685
143565696             10.973368                     5                7.8555
143565696             10.973368                     5               12.1165
143565696             10.973368                     5                16.377
143565696             10.973368                     5                20.638
143565696               9.74965                     5                8.5655
143565696               9.74965                     5               12.8265
143565696               9.74965                     5               17.0875
143565696               9.74965                     5                21.348
143565696              8.525933                     5                10.696
143565696              8.525933                     5                14.957
143565696              8.525933                     5               19.2175
143565696              8.525933                     5               23.4785
143565696               9.74965                     5                 9.986
143565696               9.74965                     5               14.2465
143565696               9.74965                     5               18.5075
143565696               9.74965                     5               22.7685
143565696              8.525933                     5                7.8555
143565696              8.525933                     5               12.1165
143565696              8.525933                     5                16.377
143565696              8.525933                     5                20.638
143565696              7.302216                     5                8.5655
143565696              7.302216                     5               12.8265
143565696              7.302216                     5               17.0875
143565696              7.302216                     5                21.348
143565696              6.078498                     5                10.696
143565696              6.078498                     5                14.957
143565696              6.078498                     5               19.2175
143565696              6.078498                     5               23.4785
143565696              7.302216                     5                 9.986
143565696              7.302216                     5               14.2465
143565696              7.302216                     5               18.5075
143565696              7.302216                     5               22.7685
143565696              6.078498                     5                7.8555
143565696              6.078498                     5               12.1165
143565696              6.078498                     5                16.377
143565696              6.078498                     5                20.638
143565696              4.854781                     5                8.5655
143565696              4.854781                     5               12.8265
143565696              4.854781                     5               17.0875
143565696              4.854781                     5                21.348
143565696              3.631235                     5                10.696
143565696              3.631235                     5                14.957
143565696              3.631235                     5               19.2175
143565696              3.631235                     5               23.4785
143565696              4.854781                     5                 9.986
143565696              4.854781                     5               14.2465
143565696              4.854781                     5               18.5075
143565696              4.854781                     5               22.7685
143565696              3.631235                     5                7.8555
143565696              3.631235                     5               12.1165
143565696              3.631235                     5                16.377
143565696              3.631235                     5                20.638
143565696              2.407518                     5                8.5655
143565696              2.407518                     5               12.8265
143565696              2.407518                     5               17.0875
143565696              2.407518                     5                21.348
143565696                1.1838                     5                10.696
143565696                1.1838                     5                14.957
143565696                1.1838                     5               19.2175
143565696                1.1838                     5               23.4785
143565696              2.407518                     5                 9.986
143565696              2.407518                     5               14.2465
143565696              2.407518                     5               18.5075
143565696              2.407518                     5               22.7685
143565696                1.1838                     5                7.8555
143565696                1.1838                     5               12.1165
143565696                1.1838                     5                16.377
143565696                1.1838                     5                20.638
143565728             15.865667                     5                6.7155
143565728              13.42303                     5                6.7155
143565728             10.975766                     5                6.7155
143565728              8.528332                     5                6.7155
143565728              6.080897                     5                6.7155
143565728              3.633634                     5                6.7155
143565728              1.181402                     5                6.7155
143565728             14.236907              3.392383             29.300194
143565728              0.581948              4.519774                  23.5
143565728               1.00504              6.559067             26.951489
143565728             13.217929              5.630913             28.085134
143565728             11.801552              2.303407              24.85253
143565728               8.12775              3.655232             29.196272
143565728             14.514687              4.783963             23.740755
143565728              2.937116              3.155226                  23.5
143565728             12.858906              4.755412             27.677064
143565728             15.126194              7.343608             29.365363
143565728               8.02287              1.883819              29.15333
143565728              7.264493              8.530411             24.810029
143565728              6.254171              9.410996             31.863855
143565728              7.664902              8.791169             29.808555
143565728              4.262057              8.585258              26.65847
143565728              6.317929               9.21309              24.97591
143565728              4.571546              1.696089             27.868327
143565728             13.782137              7.692817              26.49577
143565728              2.751007               1.36487             28.933298
143565728               8.15906              4.753372             29.873406
143565728             16.324338              7.435503             32.848919
143565728              3.099267              9.102102             27.618475
143565728             15.174637              3.440881             28.276876
143565728              3.733981              8.327366             32.439415
143565728              7.696388              8.719484             32.186041
143565728             16.788212              3.998406             29.452883
143565728             13.730259              3.098159             29.996586
143565728              7.202989              5.329592             26.594421
143565696              0.560995              1.877139             27.044469
143565696              3.960664               8.24281                  23.5
143565696             14.726494              8.295868                  23.5
143565696             15.706264              1.311148                  23.5
143565696             12.665808              4.826164             23.692748
143565696             10.906692              8.742224                  23.5
143565696              6.039811              8.830988             25.922124
143565696               7.53085               6.39243             25.037686
143565696             16.220961              5.863641                  23.5
143565696              9.476933              7.729864             25.418469
143565696             15.358301               9.45164                  23.5
143565696              2.534123              8.871273             29.450655
143565696              3.967538              8.698149             29.088549
143565696             11.627892              7.285415             27.649718
143565696             12.598336               3.44901             26.787342
143565696              4.169719              7.036442             32.060645
143565696             13.813237              0.612232             28.568813
143565696              3.681447              7.780474             27.826533
143565696              9.042818              9.570811             32.456456
143565696              2.219349              4.000602              25.29125
143565696              3.538334              3.785423             24.748888
143565696              9.887888              3.134814              24.25636
143565696              9.985232              1.829379             28.135052
143565696             14.677027              1.453595             33.124272
143565696              5.680293              7.896221             32.333968
143565696               2.96981              8.068371             32.000978
143565696              3.655568              8.323749             33.124272
143565696              9.902739              6.254528             25.160791
143565696              9.782795              5.684025             33.124272
143565696              3.636163              6.096603             32.361254
143565696               9.05818              1.300426             26.812378
143565696              5.107164              2.491319             31.379475
143565696             13.355546              8.749024             28.309255
300
Atoms. Timestep: 10
143565728      15.9592123610873                     5      34.4382112153489
143565728      15.9592123610873                     5      36.8982112153489
143565728      15.9592123610873                     5      39.3582112153489
143565728      15.9592123610873                     5      41.8182112153489
143565728      15.9592123610873                     5      44.2782112153489
143565728      15.9592123610873                     5      46.7382112153489
143565728      15.9592123610873                     5      49.1982112153489
143565728     0.968974361087327                     5      33.2082112153489
143565728     0.968974361087327                     5      35.6682112153489
143565728     0.968974361087327                     5      38.1282112153489
143565728     0.968974361087327                     5      40.5882112153489
143565728     0.968974361087327                     5      43.0482112153489
143565728     0.968974361087327                     5      45.5082112153489
143565728     0.968974361087327                     5      47.9682112153489
143565728     0.255267361087327                     5      34.4382112153489
143565728     0.255267361087327                     5      36.8982112153489
143565728     0.255267361087327                     5      39.3582112153489
143565728     0.255267361087327                     5      41.8182112153489
143565728     0.255267361087327                     5      44.2782112153489
143565728     0.255267361087327                     5      46.7382112153489
143565728     0.255267361087327                     5      49.1982112153489
143565728      2.39673036108733                     5      33.2082112153489
143565728      2.39673036108733                     5      35.6682112153489
143565728      2.39673036108733                     5      38.1282112153489
143565728      2.39673036108733                     5      40.5882112153489
143565728      2.39673036108733                     5      43.0482112153489
143565728      2.39673036108733                     5      45.5082112153489
143565728      2.39673036108733                     5      47.9682112153489
143565728      3.11043736108733                     5      34.4382112153489
143565728      3.11043736108733                     5      36.8982112153489
143565696      3.11043736108733                     5      39.3582112153489
143565696      3.11043736108733                     5      41.8182112153489
143565696      3.11043736108733                     5      44.2782112153489
143565696      3.11043736108733                     5      46.7382112153489
143565696      3.11043736108733                     5      49.1982112153489
143565696      5.25189936108733                     5      33.2082112153489
143565696      5.25189936108733                     5      35.6682112153489
143565696      5.25189936108733                     5      38.1282112153489
143565696      5.25189936108733                     5      40.5882112153489
143565696      5.25189936108733                     5      43.0482112153489
143565696      5.25189936108733                     5      45.5082112153489
143565696      5.25189936108733                     5      47.9682112153489
143565696      4.53819236108733                     5      34.4382112153489
143565696      4.53819236108733                     5      36.8982112153489
143565696      4.53819236108733                     5      39.3582112153489
143565696      4.53819236108733                     5      41.8182112153489
143565696      4.53819236108733                     5      44.2782112153489
143565696      4.53819236108733                     5      46.7382112153489
143565696      4.53819236108733                     5      49.1982112153489
143565696      6.67965536108733                     5      33.2082112153489
143565696      6.67965536108733                     5      35.6682112153489
143565696      6.67965536108733                     5      38.1282112153489
143565696      6.67965536108733                     5      40.5882112153489
143565696      6.67965536108733                     5      43.0482112153489
143565696      6.67965536108733                     5      45.5082112153489
143565696      6.67965536108733                     5      47.9682112153489
143565696      7.39336236108733                     5      34.4382112153489
143565696      7.39336236108733                     5      36.8982112153489
143565696      7.39336236108733                     5      39.3582112153489
143565696      7.39336236108733                     5      41.8182112153489
143565696      7.39336236108733                     5      44.2782112153489
143565696      7.39336236108733                     5      46.7382112153489
143565696      7.39336236108733                     5      49.1982112153489
143565696      9.53482436108732                     5      33.2082112153489
143565696      9.53482436108732                     5      35.6682112153489
143565696      9.53482436108732                     5      38.1282112153489
143565696      9.53482436108732                     5      40.5882112153489
143565696      9.53482436108732                     5      43.0482112153489
143565696      9.53482436108732                     5      45.5082112153489
143565696      9.53482436108732                     5      47.9682112153489
143565696      8.82111736108732                     5      34.4382112153489
143565696      8.82111736108732                     5      36.8982112153489
143565696      8.82111736108732                     5      39.3582112153489
143565696      8.82111736108732                     5      41.8182112153489
143565696      8.82111736108732                     5      44.2782112153489
143565696      8.82111736108732                     5      46.7382112153489
143565696      8.82111736108732                     5      49.1982112153489
143565696      10.9625803610873                     5      33.2082112153489
143565696      10.9625803610873                     5      35.6682112153489
143565696      10.9625803610873                     5      38.1282112153489
143565696      10.9625803610873                     5      40.5882112153489
143565696      10.9625803610873                     5      43.0482112153489
143565696      10.9625803610873                     5      45.5082112153489
143565696      10.9625803610873                     5      47.9682112153489
143565696      11.6762873610873                     5      34.4382112153489
143565696      11.6762873610873                     5      36.8982112153489
143565696      11.6762873610873                     5      39.3582112153489
143565696      11.6762873610873                     5      41.8182112153489
143565696      11.6762873610873                     5      44.2782112153489
143565696      11.6762873610873                     5      46.7382112153489
143565696      11.6762873610873                     5      49.1982112153489
143565696      13.8177493610873                     5      33.2082112153489
143565696      13.8177493610873                     5      35.6682112153489
143565696      13.8177493610873                     5      38.1282112153489