search structure

300 atoms
2  atom types

0   17.131700 xlo xhi
0   10.000000 ylo yhi
0   50.000000 zlo zhi

Atoms

1 2 15.964110 5.000000 34.430772
2 2 15.964110 5.000000 36.890772
3 2 15.964110 5.000000 39.350772
4 2 15.964110 5.000000 41.810772
5 2 15.964110 5.000000 44.270772
6 2 15.964110 5.000000 46.730772
7 2 15.964110 5.000000 49.190772
8 2 0.973872 5.000000 33.200772
9 2 0.973872 5.000000 35.660772
10 2 0.973872 5.000000 38.120772
11 2 0.973872 5.000000 40.580772
12 2 0.973872 5.000000 43.040772
13 2 0.973872 5.000000 45.500772
14 2 0.973872 5.000000 47.960772
15 2 0.260165 5.000000 34.430772
16 2 0.260165 5.000000 36.890772
17 2 0.260165 5.000000 39.350772
18 2 0.260165 5.000000 41.810772
19 2 0.260165 5.000000 44.270772
20 2 0.260165 5.000000 46.730772
21 2 0.260165 5.000000 49.190772
22 2 2.401628 5.000000 33.200772
23 2 2.401628 5.000000 35.660772
24 2 2.401628 5.000000 38.120772
25 2 2.401628 5.000000 40.580772
26 2 2.401628 5.000000 43.040772
27 2 2.401628 5.000000 45.500772
28 2 2.401628 5.000000 47.960772
29 2 3.115335 5.000000 34.430772
30 2 3.115335 5.000000 36.890772
31 1 3.115335 5.000000 39.350772
32 1 3.115335 5.000000 41.810772
33 1 3.115335 5.000000 44.270772
34 1 3.115335 5.000000 46.730772
35 1 3.115335 5.000000 49.190772
36 1 5.256797 5.000000 33.200772
37 1 5.256797 5.000000 35.660772
38 1 5.256797 5.000000 38.120772
39 1 5.256797 5.000000 40.580772
40 1 5.256797 5.000000 43.040772
41 1 5.256797 5.000000 45.500772
42 1 5.256797 5.000000 47.960772
43 1 4.543090 5.000000 34.430772
44 1 4.543090 5.000000 36.890772
45 1 4.543090 5.000000 39.350772
46 1 4.543090 5.000000 41.810772
47 1 4.543090 5.000000 44.270772
48 1 4.543090 5.000000 46.730772
49 1 4.543090 5.000000 49.190772
50 1 6.684553 5.000000 33.200772
51 1 6.684553 5.000000 35.660772
52 1 6.684553 5.000000 38.120772
53 1 6.684553 5.000000 40.580772
54 1 6.684553 5.000000 43.040772
55 1 6.684553 5.000000 45.500772
56 1 6.684553 5.000000 47.960772
57 1 7.398260 5.000000 34.430772
58 1 7.398260 5.000000 36.890772
59 1 7.398260 5.000000 39.350772
60 1 7.398260 5.000000 41.810772
61 1 7.398260 5.000000 44.270772
62 1 7.398260 5.000000 46.730772
63 1 7.398260 5.000000 49.190772
64 1 9.539722 5.000000 33.200772
65 1 9.539722 5.000000 35.660772
66 1 9.539722 5.000000 38.120772
67 1 9.539722 5.000000 40.580772
68 1 9.539722 5.000000 43.040772
69 1 9.539722 5.000000 45.500772
70 1 9.539722 5.000000 47.960772
71 1 8.826015 5.000000 34.430772
72 1 8.826015 5.000000 36.890772
73 1 8.826015 5.000000 39.350772
74 1 8.826015 5.000000 41.810772
75 1 8.826015 5.000000 44.270772
76 1 8.826015 5.000000 46.730772
77 1 8.826015 5.000000 49.190772
78 1 10.967478 5.000000 33.200772
79 1 10.967478 5.000000 35.660772
80 1 10.967478 5.000000 38.120772
81 1 10.967478 5.000000 40.580772
82 1 10.967478 5.000000 43.040772
83 1 10.967478 5.000000 45.500772
84 1 10.967478 5.000000 47.960772
85 1 11.681185 5.000000 34.430772
86 1 11.681185 5.000000 36.890772
87 1 11.681185 5.000000 39.350772
88 1 11.681185 5.000000 41.810772
89 1 11.681185 5.000000 44.270772
90 1 11.681185 5.000000 46.730772
91 1 11.681185 5.000000 49.190772
92 1 13.822647 5.000000 33.200772
93 1 13.822647 5.000000 35.660772
94 1 13.822647 5.000000 38.120772
95 1 13.822647 5.000000 40.580772
96 1 13.822647 5.000000 43.040772
97 1 13.822647 5.000000 45.500772
98 1 13.822647 5.000000 47.960772
99 1 13.108940 5.000000 34.430772
100 1 13.108940 5.000000 36.890772
101 1 13.108940 5.000000 39.350772
102 1 13.108940 5.000000 41.810772
103 1 13.108940 5.000000 44.270772
104 1 13.108940 5.000000 46.730772
105 1 13.108940 5.000000 49.190772
106 1 15.250403 5.000000 33.200772
107 1 15.250403 5.000000 35.660772
108 1 15.250403 5.000000 38.120772
109 1 15.250403 5.000000 40.580772
110 1 15.250403 5.000000 43.040772
111 1 15.250403 5.000000 45.500772
112 1 15.250403 5.000000 47.960772
113 2 15.393967 5.000000 50.178272
114 2 0.830137 5.000000 50.178272
115 2 2.547419 5.000000 50.179272
116 2 5.113062 5.000000 50.178272
117 2 6.830344 5.000000 50.179272
118 2 9.395987 5.000000 50.178272
119 2 11.113269 5.000000 50.179272
120 2 13.678912 5.000000 50.178272
121 1 -0.039917 5.000000 8.565500
122 1 -0.039917 5.000000 12.826500
123 1 -0.039917 5.000000 17.087500
124 1 -0.039917 5.000000 21.348000
125 1 -0.039917 5.000000 9.986000
126 1 -0.039917 5.000000 14.246500
127 1 -0.039917 5.000000 18.507500
128 1 -0.039917 5.000000 22.768500
129 1 15.868066 5.000000 10.696000
130 1 15.868066 5.000000 14.957000
131 1 15.868066 5.000000 19.217500
132 1 15.868066 5.000000 23.478500
133 1 15.868066 5.000000 7.855500
134 1 15.868066 5.000000 12.116500
135 1 15.868066 5.000000 16.377000
136 1 15.868066 5.000000 20.638000
137 1 14.644348 5.000000 8.565500
138 1 14.644348 5.000000 12.826500
139 1 14.644348 5.000000 17.087500
140 1 14.644348 5.000000 21.348000
141 1 13.420631 5.000000 10.696000
142 1 13.420631 5.000000 14.957000
143 1 13.420631 5.000000 19.217500
144 1 13.420631 5.000000 23.478500
145 1 14.644348 5.000000 9.986000
146 1 14.644348 5.000000 14.246500
147 1 14.644348 5.000000 18.507500
148 1 14.644348 5.000000 22.768500
149 1 13.420631 5.000000 7.855500
150 1 13.420631 5.000000 12.116500
151 1 13.420631 5.000000 16.377000
152 1 13.420631 5.000000 20.638000
153 1 12.197085 5.000000 8.565500
154 1 12.197085 5.000000 12.826500
155 1 12.197085 5.000000 17.087500
156 1 12.197085 5.000000 21.348000
157 1 10.973368 5.000000 10.696000
158 1 10.973368 5.000000 14.957000
159 1 10.973368 5.000000 19.217500
160 1 10.973368 5.000000 23.478500
161 1 12.197085 5.000000 9.986000
162 1 12.197085 5.000000 14.246500
163 1 12.197085 5.000000 18.507500
164 1 12.197085 5.000000 22.768500
165 1 10.973368 5.000000 7.855500
166 1 10.973368 5.000000 12.116500
167 1 10.973368 5.000000 16.377000
168 1 10.973368 5.000000 20.638000
169 1 9.749650 5.000000 8.565500
170 1 9.749650 5.000000 12.826500
171 1 9.749650 5.000000 17.087500
172 1 9.749650 5.000000 21.348000
173 1 8.525933 5.000000 10.696000
174 1 8.525933 5.000000 14.957000
175 1 8.525933 5.000000 19.217500
176 1 8.525933 5.000000 23.478500
177 1 9.749650 5.000000 9.986000
178 1 9.749650 5.000000 14.246500
179 1 9.749650 5.000000 18.507500
180 1 9.749650 5.000000 22.768500
181 1 8.525933 5.000000 7.855500
182 1 8.525933 5.000000 12.116500
183 1 8.525933 5.000000 16.377000
184 1 8.525933 5.000000 20.638000
185 1 7.302216 5.000000 8.565500
186 1 7.302216 5.000000 12.826500
187 1 7.302216 5.000000 17.087500
188 1 7.302216 5.000000 21.348000
189 1 6.078498 5.000000 10.696000
190 1 6.078498 5.000000 14.957000
191 1 6.078498 5.000000 19.217500
192 1 6.078498 5.000000 23.478500
193 1 7.302216 5.000000 9.986000
194 1 7.302216 5.000000 14.246500
195 1 7.302216 5.000000 18.507500
196 1 7.302216 5.000000 22.768500
197 1 6.078498 5.000000 7.855500
198 1 6.078498 5.000000 12.116500
199 1 6.078498 5.000000 16.377000
200 1 6.078498 5.000000 20.638000
201 1 4.854781 5.000000 8.565500
202 1 4.854781 5.000000 12.826500
203 1 4.854781 5.000000 17.087500
204 1 4.854781 5.000000 21.348000
205 1 3.631235 5.000000 10.696000
206 1 3.631235 5.000000 14.957000
207 1 3.631235 5.000000 19.217500
208 1 3.631235 5.000000 23.478500
209 1 4.854781 5.000000 9.986000
210 1 4.854781 5.000000 14.246500
211 1 4.854781 5.000000 18.507500
212 1 4.854781 5.000000 22.768500
213 1 3.631235 5.000000 7.855500
214 1 3.631235 5.000000 12.116500
215 1 3.631235 5.000000 16.377000
216 1 3.631235 5.000000 20.638000
217 1 2.407518 5.000000 8.565500
218 1 2.407518 5.000000 12.826500
219 1 2.407518 5.000000 17.087500
220 1 2.407518 5.000000 21.348000
221 1 1.183800 5.000000 10.696000
222 1 1.183800 5.000000 14.957000
223 1 1.183800 5.000000 19.217500
224 1 1.183800 5.000000 23.478500
225 1 2.407518 5.000000 9.986000
226 1 2.407518 5.000000 14.246500
227 1 2.407518 5.000000 18.507500
228 1 2.407518 5.000000 22.768500
229 1 1.183800 5.000000 7.855500
230 1 1.183800 5.000000 12.116500
231 1 1.183800 5.000000 16.377000
232 1 1.183800 5.000000 20.638000
233 2 15.865667 5.000000 6.715500
234 2 13.423030 5.000000 6.715500
235 2 10.975766 5.000000 6.715500
236 2 8.528332 5.000000 6.715500
237 2 6.080897 5.000000 6.715500
238 2 3.633634 5.000000 6.715500
239 2 1.181402 5.000000 6.715500
240 2 14.236907 3.392383 29.300194
241 2 0.581948 4.519774 23.500000
242 2 1.005040 6.559067 26.951489
243 2 13.217929 5.630913 28.085134
244 2 11.801552 2.303407 24.852530
245 2 8.127750 3.655232 29.196272
246 2 14.514687 4.783963 23.740755
247 2 2.937116 3.155226 23.500000
248 2 12.858906 4.755412 27.677064
249 2 15.126194 7.343608 29.365363
250 2 8.022870 1.883819 29.153330
251 2 7.264493 8.530411 24.810029
252 2 6.254171 9.410996 31.863855
253 2 7.664902 8.791169 29.808555
254 2 4.262057 8.585258 26.658470
255 2 6.317929 9.213090 24.975910
256 2 4.571546 1.696089 27.868327
257 2 13.782137 7.692817 26.495770
258 2 2.751007 1.364870 28.933298
259 2 8.159060 4.753372 29.873406
260 2 16.324338 7.435503 32.848919
261 2 3.099267 9.102102 27.618475
262 2 15.174637 3.440881 28.276876
263 2 3.733981 8.327366 32.439415
264 2 7.696388 8.719484 32.186041
265 2 16.788212 3.998406 29.452883
266 2 13.730259 3.098159 29.996586
267 2 7.202989 5.329592 26.594421
268 1 0.560995 1.877139 27.044469
269 1 3.960664 8.242810 23.500000
270 1 14.726494 8.295868 23.500000
271 1 15.706264 1.311148 23.500000
272 1 12.665808 4.826164 23.692748
273 1 10.906692 8.742224 23.500000
274 1 6.039811 8.830988 25.922124
275 1 7.530850 6.392430 25.037686
276 1 16.220961 5.863641 23.500000
277 1 9.476933 7.729864 25.418469
278 1 15.358301 9.451640 23.500000
279 1 2.534123 8.871273 29.450655
280 1 3.967538 8.698149 29.088549
281 1 11.627892 7.285415 27.649718
282 1 12.598336 3.449010 26.787342
283 1 4.169719 7.036442 32.060645
284 1 13.813237 0.612232 28.568813
285 1 3.681447 7.780474 27.826533
286 1 9.042818 9.570811 32.456456
287 1 2.219349 4.000602 25.291250
288 1 3.538334 3.785423 24.748888
289 1 9.887888 3.134814 24.256360
290 1 9.985232 1.829379 28.135052
291 1 14.677027 1.453595 33.124272
292 1 5.680293 7.896221 32.333968
293 1 2.969810 8.068371 32.000978
294 1 3.655568 8.323749 33.124272
295 1 9.902739 6.254528 25.160791
296 1 9.782795 5.684025 33.124272
297 1 3.636163 6.096603 32.361254
298 1 9.058180 1.300426 26.812378
299 1 5.107164 2.491319 31.379475
300 1 13.355546 8.749024 28.309255
