300
Atoms. Timestep: 0
114033568              4.154148                     5               34.3065
114033568              4.154148                     5               36.7665
114033568              4.154148                     5               39.2265
114033568              4.154148                     5               41.6865
114033568              4.154148                     5               44.1465
114033568              4.154148                     5               46.6065
114033568              4.154148                     5               49.0665
114033568              6.295611                     5               33.0765
114033568              6.295611                     5               35.5365
114033568              6.295611                     5               37.9965
114033568              6.295611                     5               40.4565
114033568              6.295611                     5               42.9165
114033568              6.295611                     5               45.3765
114033568              6.295611                     5               47.8365
114033568              5.581904                     5               34.3065
114033568              5.581904                     5               36.7665
114033568              5.581904                     5               39.2265
114033568              5.581904                     5               41.6865
114033568              5.581904                     5               44.1465
114033568              5.581904                     5               46.6065
114033568              5.581904                     5               49.0665
114033568              7.723367                     5               33.0765
114033568              7.723367                     5               35.5365
114033568              7.723367                     5               37.9965
114033568              7.723367                     5               40.4565
114033568              7.723367                     5               42.9165
114033568              7.723367                     5               45.3765
114033568              7.723367                     5               47.8365
114033568              8.437073                     5               34.3065
114033568              8.437073                     5               36.7665
114033536              8.437073                     5               39.2265
114033536              8.437073                     5               41.6865
114033536              8.437073                     5               44.1465
114033536              8.437073                     5               46.6065
114033536              8.437073                     5               49.0665
114033536             10.578536                     5               33.0765
114033536             10.578536                     5               35.5365
114033536             10.578536                     5               37.9965
114033536             10.578536                     5               40.4565
114033536             10.578536                     5               42.9165
114033536             10.578536                     5               45.3765
114033536             10.578536                     5               47.8365
114033536              9.864829                     5               34.3065
114033536              9.864829                     5               36.7665
114033536              9.864829                     5               39.2265
114033536              9.864829                     5               41.6865
114033536              9.864829                     5               44.1465
114033536              9.864829                     5               46.6065
114033536              9.864829                     5               49.0665
114033536             12.006292                     5               33.0765
114033536             12.006292                     5               35.5365
114033536             12.006292                     5               37.9965
114033536             12.006292                     5               40.4565
114033536             12.006292                     5               42.9165
114033536             12.006292                     5               45.3765
114033536             12.006292                     5               47.8365
114033536             12.719998                     5               34.3065
114033536             12.719998                     5               36.7665
114033536             12.719998                     5               39.2265
114033536             12.719998                     5               41.6865
114033536             12.719998                     5               44.1465
114033536             12.719998                     5               46.6065
114033536             12.719998                     5               49.0665
114033536             14.861461                     5               33.0765
114033536             14.861461                     5               35.5365
114033536             14.861461                     5               37.9965
114033536             14.861461                     5               40.4565
114033536             14.861461                     5               42.9165
114033536             14.861461                     5               45.3765
114033536             14.861461                     5               47.8365
114033536             14.147754                     5               34.3065
114033536             14.147754                     5               36.7665
114033536             14.147754                     5               39.2265
114033536             14.147754                     5               41.6865
114033536             14.147754                     5               44.1465
114033536             14.147754                     5               46.6065
114033536             14.147754                     5               49.0665
114033536             16.289217                     5               33.0765
114033536             16.289217                     5               35.5365
114033536             16.289217                     5               37.9965
114033536             16.289217                     5               40.4565
114033536             16.289217                     5               42.9165
114033536             16.289217                     5               45.3765
114033536             16.289217                     5               47.8365
114033536             17.002923                     5               34.3065
114033536             17.002923                     5               36.7665
114033536             17.002923                     5               39.2265
114033536             17.002923                     5               41.6865
114033536             17.002923                     5               44.1465
114033536             17.002923                     5               46.6065
114033536             17.002923                     5               49.0665
114033536              2.012686                     5               33.0765
114033536              2.012686                     5               35.5365
114033536              2.012686                     5               37.9965
114033536              2.012686                     5               40.4565
114033536              2.012686                     5               42.9165
114033536              2.012686                     5               45.3765
114033536              2.012686                     5               47.8365
114033536              1.298979                     5               34.3065
114033536              1.298979                     5               36.7665
114033536              1.298979                     5               39.2265
114033536              1.298979                     5               41.6865
114033536              1.298979                     5               44.1465
114033536              1.298979                     5               46.6065
114033536              1.298979                     5               49.0665
114033536              3.440442                     5               33.0765
114033536              3.440442                     5               35.5365
114033536              3.440442                     5               37.9965
114033536              3.440442                     5               40.4565
114033536              3.440442                     5               42.9165
114033536              3.440442                     5               45.3765
114033536              3.440442                     5               47.8365
114033568              3.584006                     5     0.054000000000002
114033568              6.151876                     5     0.054000000000002
114033568              7.869158                     5    0.0549999999999997
114033568             10.434801                     5     0.054000000000002
114033568             12.152083                     5    0.0549999999999997
114033568             14.717726                     5     0.054000000000002
114033568             16.435008                     5    0.0549999999999997
114033568              1.868951                     5     0.054000000000002
114033536             17.091783                     5                8.5655
114033536             17.091783                     5               12.8265
114033536             17.091783                     5               17.0875
114033536             17.091783                     5                21.348
114033536             17.091783                     5                 9.986
114033536             17.091783                     5               14.2465
114033536             17.091783                     5               18.5075
114033536             17.091783                     5               22.7685
114033536             15.868066                     5                10.696
114033536             15.868066                     5                14.957
114033536             15.868066                     5               19.2175
114033536             15.868066                     5               23.4785
114033536             15.868066                     5                7.8555
114033536             15.868066                     5               12.1165
114033536             15.868066                     5                16.377
114033536             15.868066                     5                20.638
114033536             14.644348                     5                8.5655
114033536             14.644348                     5               12.8265
114033536             14.644348                     5               17.0875
114033536             14.644348                     5                21.348
114033536             13.420631                     5                10.696
114033536             13.420631                     5                14.957
114033536             13.420631                     5               19.2175
114033536             13.420631                     5               23.4785
114033536             14.644348                     5                 9.986
114033536             14.644348                     5               14.2465
114033536             14.644348                     5               18.5075
114033536             14.644348                     5               22.7685
114033536             13.420631                     5                7.8555
114033536             13.420631                     5               12.1165
114033536             13.420631                     5                16.377
114033536             13.420631                     5                20.638
114033536             12.197085                     5                8.5655
114033536             12.197085                     5               12.8265
114033536             12.197085                     5               17.0875
114033536             12.197085                     5                21.348
114033536             10.973368                     5                10.696
114033536             10.973368                     5                14.957
114033536             10.973368                     5               19.2175
114033536             10.973368                     5               23.4785
114033536             12.197085                     5                 9.986
114033536             12.197085                     5               14.2465
114033536             12.197085                     5               18.5075
114033536             12.197085                     5               22.7685
114033536             10.973368                     5                7.8555
114033536             10.973368                     5               12.1165
114033536             10.973368                     5                16.377
114033536             10.973368                     5                20.638
114033536               9.74965                     5                8.5655
114033536               9.74965                     5               12.8265
114033536               9.74965                     5               17.0875
114033536               9.74965                     5                21.348
114033536              8.525933                     5                10.696
114033536              8.525933                     5                14.957
114033536              8.525933                     5               19.2175
114033536              8.525933                     5               23.4785
114033536               9.74965                     5                 9.986
114033536               9.74965                     5               14.2465
114033536               9.74965                     5               18.5075
114033536               9.74965                     5               22.7685
114033536              8.525933                     5                7.8555
114033536              8.525933                     5               12.1165
114033536              8.525933                     5                16.377
114033536              8.525933                     5                20.638
114033536              7.302216                     5                8.5655
114033536              7.302216                     5               12.8265
114033536              7.302216                     5               17.0875
114033536              7.302216                     5                21.348
114033536              6.078498                     5                10.696
114033536              6.078498                     5                14.957
114033536              6.078498                     5               19.2175
114033536              6.078498                     5               23.4785
114033536              7.302216                     5                 9.986
114033536              7.302216                     5               14.2465
114033536              7.302216                     5               18.5075
114033536              7.302216                     5               22.7685
114033536              6.078498                     5                7.8555
114033536              6.078498                     5               12.1165
114033536              6.078498                     5                16.377
114033536              6.078498                     5                20.638
114033536              4.854781                     5                8.5655
114033536              4.854781                     5               12.8265
114033536              4.854781                     5               17.0875
114033536              4.854781                     5                21.348
114033536              3.631235                     5                10.696
114033536              3.631235                     5                14.957
114033536              3.631235                     5               19.2175
114033536              3.631235                     5               23.4785
114033536              4.854781                     5                 9.986
114033536              4.854781                     5               14.2465
114033536              4.854781                     5               18.5075
114033536              4.854781                     5               22.7685
114033536              3.631235                     5                7.8555
114033536              3.631235                     5               12.1165
114033536              3.631235                     5                16.377
114033536              3.631235                     5                20.638
114033536              2.407518                     5                8.5655
114033536              2.407518                     5               12.8265
114033536              2.407518                     5               17.0875
114033536              2.407518                     5                21.348
114033536                1.1838                     5                10.696
114033536                1.1838                     5                14.957
114033536                1.1838                     5               19.2175
114033536                1.1838                     5               23.4785
114033536              2.407518                     5                 9.986
114033536              2.407518                     5               14.2465
114033536              2.407518                     5               18.5075
114033536              2.407518                     5               22.7685
114033536                1.1838                     5                7.8555
114033536                1.1838                     5               12.1165
114033536                1.1838                     5                16.377
114033536                1.1838                     5                20.638
114033568             15.865667                     5                6.7155
114033568              13.42303                     5                6.7155
114033568             10.975766                     5                6.7155
114033568              8.528332                     5                6.7155
114033568              6.080897                     5                6.7155
114033568              3.633634                     5                6.7155
114033568              1.181402                     5                6.7155
114033568             10.546615              0.743154              26.12401
114033568              8.055022              2.808581             24.552071
114033568              6.854027              6.122049             26.084153
114033568              5.201557              7.082636             27.268665
114033568              6.649186              6.550363              25.20088
114033568             14.645836              6.727751             23.693505
114033568             14.370809              2.823354                  23.5
114033568              1.080258              2.428947             23.659558
114033568             11.943592              3.323124             24.743795
114033568              6.377708              1.047452             28.893159
114033568             13.620457              4.568952             30.915305
114033568              1.081336              4.235986             26.200939
114033568              6.995148                7.6052             27.169442
114033568              3.512543              7.327269             27.106658
114033568              5.983502              2.148138             28.533019
114033568             10.682041              9.838961             27.897273
114033568              8.649234              8.146998             27.551948
114033568             13.387277              8.995296             29.989501
114033568             13.454983              3.300846             31.509121
114033568              1.158732              4.411539               30.4568
114033568              8.877546              6.118482              31.53984
114033568              0.824666              8.154845             27.110356
114033568              6.422988              1.365231             32.927926
114033568              0.304826              9.793534                    33
114033568             11.629271              3.444133                    33
114033568              9.944301               6.47968              30.49516
114033568              7.355332              5.667443             31.231082
114033568              4.216857              7.224442             31.945321
114033536              3.193397              7.572125              24.72326
114033536             10.135197              0.357913             24.460363
114033536              0.780704               9.00025             25.878152
114033536              9.437315               3.23278             24.237198
114033536              1.403349              6.918604             27.420128
114033536             14.309475              9.693863             25.785061
114033536              4.467415              9.840809             25.096477
114033536              4.692922               0.77887                  23.5
114033536              17.05381               7.06763             25.327652
114033536              9.220229              2.567683                  23.5
114033536             14.086595              1.346858                  23.5
114033536              4.050102              3.849029             27.225593
114033536              3.158156              4.256631             23.562366
114033536             12.751346              2.878689             26.072024
114033536              7.567839              6.064539             27.393571
114033536             14.872353              4.845212             29.376676
114033536              2.043326               7.45649             27.045612
114033536              7.502514              9.322626             25.142375
114033536              6.777161               9.33277             29.337775
114033536             16.212714              8.899651             24.906926
114033536               1.12145               0.39933             27.289929
114033536             15.888714               7.57987             27.384437
114033536              4.026894              1.694688             32.642277
114033536               6.69519              3.638685              27.60976
114033536              6.942577              3.909348                    33
114033536              1.039095              6.001638                    33
114033536              1.072014              8.844965                    33
114033536             15.553067              2.636614             30.542959
114033536              4.974498              0.555221             31.979341
114033536              1.357634              0.107672                    33
114033536              9.244787               3.64686             32.365915
114033536             10.372571              6.329712             28.401198
114033536             11.212227               8.74466             31.329118
300
Atoms. Timestep: 9
114033568      4.15275940996031                     5      34.3068717527457
114033568      4.15275940996031                     5      36.7668717527457
114033568      4.15275940996031                     5      39.2268717527457
114033568      4.15275940996031                     5      41.6868717527457
114033568      4.15275940996031                     5      44.1468717527457
114033568      4.15275940996031                     5      46.6068717527457
114033568      4.15275940996031                     5      49.0668717527457
114033568      6.29422240996031                     5      33.0768717527457
114033568      6.29422240996031                     5      35.5368717527457
114033568      6.29422240996031                     5      37.9968717527457
114033568      6.29422240996031                     5      40.4568717527457
114033568      6.29422240996031                     5      42.9168717527457
114033568      6.29422240996031                     5      45.3768717527457
114033568      6.29422240996031                     5      47.8368717527457
114033568      5.58051540996031                     5      34.3068717527457
114033568      5.58051540996031                     5      36.7668717527457
114033568      5.58051540996031                     5      39.2268717527457
114033568      5.58051540996031                     5      41.6868717527457
114033568      5.58051540996031                     5      44.1468717527457
114033568      5.58051540996031                     5      46.6068717527457
114033568      5.58051540996031                     5      49.0668717527457
114033568      7.72197840996031                     5      33.0768717527457
114033568      7.72197840996031                     5      35.5368717527457
114033568      7.72197840996031                     5      37.9968717527457
114033568      7.72197840996031                     5      40.4568717527457
114033568      7.72197840996031                     5      42.9168717527457
114033568      7.72197840996031                     5      45.3768717527457
114033568      7.72197840996031                     5      47.8368717527457
114033568      8.43568440996031                     5      34.3068717527457
114033568      8.43568440996031                     5      36.7668717527457
114033536      8.43568440996031                     5      39.2268717527457
114033536      8.43568440996031                     5      41.6868717527457
114033536      8.43568440996031                     5      44.1468717527457
114033536      8.43568440996031                     5      46.6068717527457
114033536      8.43568440996031                     5      49.0668717527457
114033536      10.5771474099603                     5      33.0768717527457
114033536      10.5771474099603                     5      35.5368717527457
114033536      10.5771474099603                     5      37.9968717527457
114033536      10.5771474099603                     5      40.4568717527457
114033536      10.5771474099603                     5      42.9168717527457
114033536      10.5771474099603                     5      45.3768717527457
114033536      10.5771474099603                     5      47.8368717527457
114033536      9.86344040996031                     5      34.3068717527457
114033536      9.86344040996031                     5      36.7668717527457
114033536      9.86344040996031                     5      39.2268717527457
114033536      9.86344040996031                     5      41.6868717527457
114033536      9.86344040996031                     5      44.1468717527457
114033536      9.86344040996031                     5      46.6068717527457
114033536      9.86344040996031                     5      49.0668717527457
114033536      12.0049034099603                     5      33.0768717527457
114033536      12.0049034099603                     5      35.5368717527457
114033536      12.0049034099603                     5      37.9968717527457
114033536      12.0049034099603                     5      40.4568717527457
114033536      12.0049034099603                     5      42.9168717527457
114033536      12.0049034099603                     5      45.3768717527457
114033536      12.0049034099603                     5      47.8368717527457
114033536      12.7186094099603                     5      34.3068717527457
114033536      12.7186094099603                     5      36.7668717527457
114033536      12.7186094099603                     5      39.2268717527457
114033536      12.7186094099603                     5      41.6868717527457
114033536      12.7186094099603                     5      44.1468717527457
114033536      12.7186094099603                     5      46.6068717527457
114033536      12.7186094099603                     5      49.0668717527457
114033536      14.8600724099603                     5      33.0768717527457
114033536      14.8600724099603                     5      35.5368717527457
114033536      14.8600724099603                     5      37.9968717527457
114033536      14.8600724099603                     5      40.4568717527457
114033536      14.8600724099603                     5      42.9168717527457
114033536      14.8600724099603                     5      45.3768717527457
114033536      14.8600724099603                     5      47.8368717527457
114033536      14.1463654099603                     5      34.3068717527457
114033536      14.1463654099603                     5      36.7668717527457
114033536      14.1463654099603                     5      39.2268717527457
114033536      14.1463654099603                     5      41.6868717527457
114033536      14.1463654099603                     5      44.1468717527457
114033536      14.1463654099603                     5      46.6068717527457
114033536      14.1463654099603                     5      49.0668717527457
114033536      16.2878284099603                     5      33.0768717527457
114033536      16.2878284099603                     5      35.5368717527457
114033536      16.2878284099603                     5      37.9968717527457
114033536      16.2878284099603                     5      40.4568717527457
114033536      16.2878284099603                     5      42.9168717527457
114033536      16.2878284099603                     5      45.3768717527457
114033536      16.2878284099603                     5      47.8368717527457
114033536      17.0015344099603                     5      34.3068717527457
114033536      17.0015344099603                     5      36.7668717527457
114033536      17.0015344099603                     5      39.2268717527457
114033536      17.0015344099603                     5      41.6868717527457
114033536      17.0015344099603                     5      44.1468717527457
114033536      17.0015344099603                     5      46.6068717527457
114033536      17.0015344099603                     5      49.0668717527457
114033536      2.01129740996031                     5      33.0768717527457
114033536      2.01129740996031                     5      35.5368717527457
114033536      2.01129740996031                     5      37.9968717527457