search structure

300 atoms
2  atom types

0   17.131700 xlo xhi
0   10.000000 ylo yhi
0   50.000000 zlo zhi

Atoms

1 2 4.154148 5.000000 34.306500
2 2 4.154148 5.000000 36.766500
3 2 4.154148 5.000000 39.226500
4 2 4.154148 5.000000 41.686500
5 2 4.154148 5.000000 44.146500
6 2 4.154148 5.000000 46.606500
7 2 4.154148 5.000000 49.066500
8 2 6.295611 5.000000 33.076500
9 2 6.295611 5.000000 35.536500
10 2 6.295611 5.000000 37.996500
11 2 6.295611 5.000000 40.456500
12 2 6.295611 5.000000 42.916500
13 2 6.295611 5.000000 45.376500
14 2 6.295611 5.000000 47.836500
15 2 5.581904 5.000000 34.306500
16 2 5.581904 5.000000 36.766500
17 2 5.581904 5.000000 39.226500
18 2 5.581904 5.000000 41.686500
19 2 5.581904 5.000000 44.146500
20 2 5.581904 5.000000 46.606500
21 2 5.581904 5.000000 49.066500
22 2 7.723367 5.000000 33.076500
23 2 7.723367 5.000000 35.536500
24 2 7.723367 5.000000 37.996500
25 2 7.723367 5.000000 40.456500
26 2 7.723367 5.000000 42.916500
27 2 7.723367 5.000000 45.376500
28 2 7.723367 5.000000 47.836500
29 2 8.437073 5.000000 34.306500
30 2 8.437073 5.000000 36.766500
31 1 8.437073 5.000000 39.226500
32 1 8.437073 5.000000 41.686500
33 1 8.437073 5.000000 44.146500
34 1 8.437073 5.000000 46.606500
35 1 8.437073 5.000000 49.066500
36 1 10.578536 5.000000 33.076500
37 1 10.578536 5.000000 35.536500
38 1 10.578536 5.000000 37.996500
39 1 10.578536 5.000000 40.456500
40 1 10.578536 5.000000 42.916500
41 1 10.578536 5.000000 45.376500
42 1 10.578536 5.000000 47.836500
43 1 9.864829 5.000000 34.306500
44 1 9.864829 5.000000 36.766500
45 1 9.864829 5.000000 39.226500
46 1 9.864829 5.000000 41.686500
47 1 9.864829 5.000000 44.146500
48 1 9.864829 5.000000 46.606500
49 1 9.864829 5.000000 49.066500
50 1 12.006292 5.000000 33.076500
51 1 12.006292 5.000000 35.536500
52 1 12.006292 5.000000 37.996500
53 1 12.006292 5.000000 40.456500
54 1 12.006292 5.000000 42.916500
55 1 12.006292 5.000000 45.376500
56 1 12.006292 5.000000 47.836500
57 1 12.719998 5.000000 34.306500
58 1 12.719998 5.000000 36.766500
59 1 12.719998 5.000000 39.226500
60 1 12.719998 5.000000 41.686500
61 1 12.719998 5.000000 44.146500
62 1 12.719998 5.000000 46.606500
63 1 12.719998 5.000000 49.066500
64 1 14.861461 5.000000 33.076500
65 1 14.861461 5.000000 35.536500
66 1 14.861461 5.000000 37.996500
67 1 14.861461 5.000000 40.456500
68 1 14.861461 5.000000 42.916500
69 1 14.861461 5.000000 45.376500
70 1 14.861461 5.000000 47.836500
71 1 14.147754 5.000000 34.306500
72 1 14.147754 5.000000 36.766500
73 1 14.147754 5.000000 39.226500
74 1 14.147754 5.000000 41.686500
75 1 14.147754 5.000000 44.146500
76 1 14.147754 5.000000 46.606500
77 1 14.147754 5.000000 49.066500
78 1 16.289217 5.000000 33.076500
79 1 16.289217 5.000000 35.536500
80 1 16.289217 5.000000 37.996500
81 1 16.289217 5.000000 40.456500
82 1 16.289217 5.000000 42.916500
83 1 16.289217 5.000000 45.376500
84 1 16.289217 5.000000 47.836500
85 1 17.002923 5.000000 34.306500
86 1 17.002923 5.000000 36.766500
87 1 17.002923 5.000000 39.226500
88 1 17.002923 5.000000 41.686500
89 1 17.002923 5.000000 44.146500
90 1 17.002923 5.000000 46.606500
91 1 17.002923 5.000000 49.066500
92 1 2.012686 5.000000 33.076500
93 1 2.012686 5.000000 35.536500
94 1 2.012686 5.000000 37.996500
95 1 2.012686 5.000000 40.456500
96 1 2.012686 5.000000 42.916500
97 1 2.012686 5.000000 45.376500
98 1 2.012686 5.000000 47.836500
99 1 1.298979 5.000000 34.306500
100 1 1.298979 5.000000 36.766500
101 1 1.298979 5.000000 39.226500
102 1 1.298979 5.000000 41.686500
103 1 1.298979 5.000000 44.146500
104 1 1.298979 5.000000 46.606500
105 1 1.298979 5.000000 49.066500
106 1 3.440442 5.000000 33.076500
107 1 3.440442 5.000000 35.536500
108 1 3.440442 5.000000 37.996500
109 1 3.440442 5.000000 40.456500
110 1 3.440442 5.000000 42.916500
111 1 3.440442 5.000000 45.376500
112 1 3.440442 5.000000 47.836500
113 2 3.584006 5.000000 50.054000
114 2 6.151876 5.000000 50.054000
115 2 7.869158 5.000000 50.055000
116 2 10.434801 5.000000 50.054000
117 2 12.152083 5.000000 50.055000
118 2 14.717726 5.000000 50.054000
119 2 16.435008 5.000000 50.055000
120 2 1.868951 5.000000 50.054000
121 1 -0.039917 5.000000 8.565500
122 1 -0.039917 5.000000 12.826500
123 1 -0.039917 5.000000 17.087500
124 1 -0.039917 5.000000 21.348000
125 1 -0.039917 5.000000 9.986000
126 1 -0.039917 5.000000 14.246500
127 1 -0.039917 5.000000 18.507500
128 1 -0.039917 5.000000 22.768500
129 1 15.868066 5.000000 10.696000
130 1 15.868066 5.000000 14.957000
131 1 15.868066 5.000000 19.217500
132 1 15.868066 5.000000 23.478500
133 1 15.868066 5.000000 7.855500
134 1 15.868066 5.000000 12.116500
135 1 15.868066 5.000000 16.377000
136 1 15.868066 5.000000 20.638000
137 1 14.644348 5.000000 8.565500
138 1 14.644348 5.000000 12.826500
139 1 14.644348 5.000000 17.087500
140 1 14.644348 5.000000 21.348000
141 1 13.420631 5.000000 10.696000
142 1 13.420631 5.000000 14.957000
143 1 13.420631 5.000000 19.217500
144 1 13.420631 5.000000 23.478500
145 1 14.644348 5.000000 9.986000
146 1 14.644348 5.000000 14.246500
147 1 14.644348 5.000000 18.507500
148 1 14.644348 5.000000 22.768500
149 1 13.420631 5.000000 7.855500
150 1 13.420631 5.000000 12.116500
151 1 13.420631 5.000000 16.377000
152 1 13.420631 5.000000 20.638000
153 1 12.197085 5.000000 8.565500
154 1 12.197085 5.000000 12.826500
155 1 12.197085 5.000000 17.087500
156 1 12.197085 5.000000 21.348000
157 1 10.973368 5.000000 10.696000
158 1 10.973368 5.000000 14.957000
159 1 10.973368 5.000000 19.217500
160 1 10.973368 5.000000 23.478500
161 1 12.197085 5.000000 9.986000
162 1 12.197085 5.000000 14.246500
163 1 12.197085 5.000000 18.507500
164 1 12.197085 5.000000 22.768500
165 1 10.973368 5.000000 7.855500
166 1 10.973368 5.000000 12.116500
167 1 10.973368 5.000000 16.377000
168 1 10.973368 5.000000 20.638000
169 1 9.749650 5.000000 8.565500
170 1 9.749650 5.000000 12.826500
171 1 9.749650 5.000000 17.087500
172 1 9.749650 5.000000 21.348000
173 1 8.525933 5.000000 10.696000
174 1 8.525933 5.000000 14.957000
175 1 8.525933 5.000000 19.217500
176 1 8.525933 5.000000 23.478500
177 1 9.749650 5.000000 9.986000
178 1 9.749650 5.000000 14.246500
179 1 9.749650 5.000000 18.507500
180 1 9.749650 5.000000 22.768500
181 1 8.525933 5.000000 7.855500
182 1 8.525933 5.000000 12.116500
183 1 8.525933 5.000000 16.377000
184 1 8.525933 5.000000 20.638000
185 1 7.302216 5.000000 8.565500
186 1 7.302216 5.000000 12.826500
187 1 7.302216 5.000000 17.087500
188 1 7.302216 5.000000 21.348000
189 1 6.078498 5.000000 10.696000
190 1 6.078498 5.000000 14.957000
191 1 6.078498 5.000000 19.217500
192 1 6.078498 5.000000 23.478500
193 1 7.302216 5.000000 9.986000
194 1 7.302216 5.000000 14.246500
195 1 7.302216 5.000000 18.507500
196 1 7.302216 5.000000 22.768500
197 1 6.078498 5.000000 7.855500
198 1 6.078498 5.000000 12.116500
199 1 6.078498 5.000000 16.377000
200 1 6.078498 5.000000 20.638000
201 1 4.854781 5.000000 8.565500
202 1 4.854781 5.000000 12.826500
203 1 4.854781 5.000000 17.087500
204 1 4.854781 5.000000 21.348000
205 1 3.631235 5.000000 10.696000
206 1 3.631235 5.000000 14.957000
207 1 3.631235 5.000000 19.217500
208 1 3.631235 5.000000 23.478500
209 1 4.854781 5.000000 9.986000
210 1 4.854781 5.000000 14.246500
211 1 4.854781 5.000000 18.507500
212 1 4.854781 5.000000 22.768500
213 1 3.631235 5.000000 7.855500
214 1 3.631235 5.000000 12.116500
215 1 3.631235 5.000000 16.377000
216 1 3.631235 5.000000 20.638000
217 1 2.407518 5.000000 8.565500
218 1 2.407518 5.000000 12.826500
219 1 2.407518 5.000000 17.087500
220 1 2.407518 5.000000 21.348000
221 1 1.183800 5.000000 10.696000
222 1 1.183800 5.000000 14.957000
223 1 1.183800 5.000000 19.217500
224 1 1.183800 5.000000 23.478500
225 1 2.407518 5.000000 9.986000
226 1 2.407518 5.000000 14.246500
227 1 2.407518 5.000000 18.507500
228 1 2.407518 5.000000 22.768500
229 1 1.183800 5.000000 7.855500
230 1 1.183800 5.000000 12.116500
231 1 1.183800 5.000000 16.377000
232 1 1.183800 5.000000 20.638000
233 2 15.865667 5.000000 6.715500
234 2 13.423030 5.000000 6.715500
235 2 10.975766 5.000000 6.715500
236 2 8.528332 5.000000 6.715500
237 2 6.080897 5.000000 6.715500
238 2 3.633634 5.000000 6.715500
239 2 1.181402 5.000000 6.715500
240 2 10.546615 0.743154 26.124010
241 2 8.055022 2.808581 24.552071
242 2 6.854027 6.122049 26.084153
243 2 5.201557 7.082636 27.268665
244 2 6.649186 6.550363 25.200880
245 2 14.645836 6.727751 23.693505
246 2 14.370809 2.823354 23.500000
247 2 1.080258 2.428947 23.659558
248 2 11.943592 3.323124 24.743795
249 2 6.377708 1.047452 28.893159
250 2 13.620457 4.568952 30.915305
251 2 1.081336 4.235986 26.200939
252 2 6.995148 7.605200 27.169442
253 2 3.512543 7.327269 27.106658
254 2 5.983502 2.148138 28.533019
255 2 10.682041 9.838961 27.897273
256 2 8.649234 8.146998 27.551948
257 2 13.387277 8.995296 29.989501
258 2 13.454983 3.300846 31.509121
259 2 1.158732 4.411539 30.456800
260 2 8.877546 6.118482 31.539840
261 2 0.824666 8.154845 27.110356
262 2 6.422988 1.365231 32.927926
263 2 0.304826 9.793534 33.000000
264 2 11.629271 3.444133 33.000000
265 2 9.944301 6.479680 30.495160
266 2 7.355332 5.667443 31.231082
267 2 4.216857 7.224442 31.945321
268 1 3.193397 7.572125 24.723260
269 1 10.135197 0.357913 24.460363
270 1 0.780704 9.000250 25.878152
271 1 9.437315 3.232780 24.237198
272 1 1.403349 6.918604 27.420128
273 1 14.309475 9.693863 25.785061
274 1 4.467415 9.840809 25.096477
275 1 4.692922 0.778870 23.500000
276 1 17.053810 7.067630 25.327652
277 1 9.220229 2.567683 23.500000
278 1 14.086595 1.346858 23.500000
279 1 4.050102 3.849029 27.225593
280 1 3.158156 4.256631 23.562366
281 1 12.751346 2.878689 26.072024
282 1 7.567839 6.064539 27.393571
283 1 14.872353 4.845212 29.376676
284 1 2.043326 7.456490 27.045612
285 1 7.502514 9.322626 25.142375
286 1 6.777161 9.332770 29.337775
287 1 16.212714 8.899651 24.906926
288 1 1.121450 0.399330 27.289929
289 1 15.888714 7.579870 27.384437
290 1 4.026894 1.694688 32.642277
291 1 6.695190 3.638685 27.609760
292 1 6.942577 3.909348 33.000000
293 1 1.039095 6.001638 33.000000
294 1 1.072014 8.844965 33.000000
295 1 15.553067 2.636614 30.542959
296 1 4.974498 0.555221 31.979341
297 1 1.357634 0.107672 33.000000
298 1 9.244787 3.646860 32.365915
299 1 10.372571 6.329712 28.401198
300 1 11.212227 8.744660 31.329118
