300
Atoms. Timestep: 0
33358752              1.096704                     5             35.255231
33358752              1.096704                     5             37.715231
33358752              1.096704                     5             40.175231
33358752              1.096704                     5             42.635231
33358752              1.096704                     5             45.095231
33358752              1.096704                     5             47.555231
33358752              1.096704                     5              0.015231
33358752              3.238166                     5             34.025231
33358752              3.238166                     5             36.485231
33358752              3.238166                     5             38.945231
33358752              3.238166                     5             41.405231
33358752              3.238166                     5             43.865231
33358752              3.238166                     5             46.325231
33358752              3.238166                     5             48.785231
33358752               2.52446                     5             35.255231
33358752               2.52446                     5             37.715231
33358752               2.52446                     5             40.175231
33358752               2.52446                     5             42.635231
33358752               2.52446                     5             45.095231
33358752               2.52446                     5             47.555231
33358752               2.52446                     5              0.015231
33358752              4.665922                     5             34.025231
33358752              4.665922                     5             36.485231
33358752              4.665922                     5             38.945231
33358752              4.665922                     5             41.405231
33358752              4.665922                     5             43.865231
33358752              4.665922                     5             46.325231
33358752              4.665922                     5             48.785231
33358752              5.379629                     5             35.255231
33358752              5.379629                     5             37.715231
33358720              5.379629                     5             40.175231
33358720              5.379629                     5             42.635231
33358720              5.379629                     5             45.095231
33358720              5.379629                     5             47.555231
33358720              5.379629                     5              0.015231
33358720              7.521091                     5             34.025231
33358720              7.521091                     5             36.485231
33358720              7.521091                     5             38.945231
33358720              7.521091                     5             41.405231
33358720              7.521091                     5             43.865231
33358720              7.521091                     5             46.325231
33358720              7.521091                     5             48.785231
33358720              6.807385                     5             35.255231
33358720              6.807385                     5             37.715231
33358720              6.807385                     5             40.175231
33358720              6.807385                     5             42.635231
33358720              6.807385                     5             45.095231
33358720              6.807385                     5             47.555231
33358720              6.807385                     5              0.015231
33358720              8.948847                     5             34.025231
33358720              8.948847                     5             36.485231
33358720              8.948847                     5             38.945231
33358720              8.948847                     5             41.405231
33358720              8.948847                     5             43.865231
33358720              8.948847                     5             46.325231
33358720              8.948847                     5             48.785231
33358720              9.662554                     5             35.255231
33358720              9.662554                     5             37.715231
33358720              9.662554                     5             40.175231
33358720              9.662554                     5             42.635231
33358720              9.662554                     5             45.095231
33358720              9.662554                     5             47.555231
33358720              9.662554                     5              0.015231
33358720             11.804016                     5             34.025231
33358720             11.804016                     5             36.485231
33358720             11.804016                     5             38.945231
33358720             11.804016                     5             41.405231
33358720             11.804016                     5             43.865231
33358720             11.804016                     5             46.325231
33358720             11.804016                     5             48.785231
33358720              11.09031                     5             35.255231
33358720              11.09031                     5             37.715231
33358720              11.09031                     5             40.175231
33358720              11.09031                     5             42.635231
33358720              11.09031                     5             45.095231
33358720              11.09031                     5             47.555231
33358720              11.09031                     5              0.015231
33358720             13.231772                     5             34.025231
33358720             13.231772                     5             36.485231
33358720             13.231772                     5             38.945231
33358720             13.231772                     5             41.405231
33358720             13.231772                     5             43.865231
33358720             13.231772                     5             46.325231
33358720             13.231772                     5             48.785231
33358720             13.945479                     5             35.255231
33358720             13.945479                     5             37.715231
33358720             13.945479                     5             40.175231
33358720             13.945479                     5             42.635231
33358720             13.945479                     5             45.095231
33358720             13.945479                     5             47.555231
33358720             13.945479                     5              0.015231
33358720             16.086941                     5             34.025231
33358720             16.086941                     5             36.485231
33358720             16.086941                     5             38.945231
33358720             16.086941                     5             41.405231
33358720             16.086941                     5             43.865231
33358720             16.086941                     5             46.325231
33358720             16.086941                     5             48.785231
33358720             15.373235                     5             35.255231
33358720             15.373235                     5             37.715231
33358720             15.373235                     5             40.175231
33358720             15.373235                     5             42.635231
33358720             15.373235                     5             45.095231
33358720             15.373235                     5             47.555231
33358720             15.373235                     5              0.015231
33358720              0.382997                     5             34.025231
33358720              0.382997                     5             36.485231
33358720              0.382997                     5             38.945231
33358720              0.382997                     5             41.405231
33358720              0.382997                     5             43.865231
33358720              0.382997                     5             46.325231
33358720              0.382997                     5             48.785231
33358752              0.526561                     5              1.002731
33358752              3.094431                     5              1.002731
33358752              4.811713                     5              1.003731
33358752              7.377356                     5              1.002731
33358752              9.094638                     5              1.003731
33358752             11.660281                     5              1.002731
33358752             13.377563                     5              1.003731
33358752             15.943206                     5              1.002731
33358720             17.091783                     5                8.5655
33358720             17.091783                     5               12.8265
33358720             17.091783                     5               17.0875
33358720             17.091783                     5                21.348
33358720             17.091783                     5                 9.986
33358720             17.091783                     5               14.2465
33358720             17.091783                     5               18.5075
33358720             17.091783                     5               22.7685
33358720             15.868066                     5                10.696
33358720             15.868066                     5                14.957
33358720             15.868066                     5               19.2175
33358720             15.868066                     5               23.4785
33358720             15.868066                     5                7.8555
33358720             15.868066                     5               12.1165
33358720             15.868066                     5                16.377
33358720             15.868066                     5                20.638
33358720             14.644348                     5                8.5655
33358720             14.644348                     5               12.8265
33358720             14.644348                     5               17.0875
33358720             14.644348                     5                21.348
33358720             13.420631                     5                10.696
33358720             13.420631                     5                14.957
33358720             13.420631                     5               19.2175
33358720             13.420631                     5               23.4785
33358720             14.644348                     5                 9.986
33358720             14.644348                     5               14.2465
33358720             14.644348                     5               18.5075
33358720             14.644348                     5               22.7685
33358720             13.420631                     5                7.8555
33358720             13.420631                     5               12.1165
33358720             13.420631                     5                16.377
33358720             13.420631                     5                20.638
33358720             12.197085                     5                8.5655
33358720             12.197085                     5               12.8265
33358720             12.197085                     5               17.0875
33358720             12.197085                     5                21.348
33358720             10.973368                     5                10.696
33358720             10.973368                     5                14.957
33358720             10.973368                     5               19.2175
33358720             10.973368                     5               23.4785
33358720             12.197085                     5                 9.986
33358720             12.197085                     5               14.2465
33358720             12.197085                     5               18.5075
33358720             12.197085                     5               22.7685
33358720             10.973368                     5                7.8555
33358720             10.973368                     5               12.1165
33358720             10.973368                     5                16.377
33358720             10.973368                     5                20.638
33358720               9.74965                     5                8.5655
33358720               9.74965                     5               12.8265
33358720               9.74965                     5               17.0875
33358720               9.74965                     5                21.348
33358720              8.525933                     5                10.696
33358720              8.525933                     5                14.957
33358720              8.525933                     5               19.2175
33358720              8.525933                     5               23.4785
33358720               9.74965                     5                 9.986
33358720               9.74965                     5               14.2465
33358720               9.74965                     5               18.5075
33358720               9.74965                     5               22.7685
33358720              8.525933                     5                7.8555
33358720              8.525933                     5               12.1165
33358720              8.525933                     5                16.377
33358720              8.525933                     5                20.638
33358720              7.302216                     5                8.5655
33358720              7.302216                     5               12.8265
33358720              7.302216                     5               17.0875
33358720              7.302216                     5                21.348
33358720              6.078498                     5                10.696
33358720              6.078498                     5                14.957
33358720              6.078498                     5               19.2175
33358720              6.078498                     5               23.4785
33358720              7.302216                     5                 9.986
33358720              7.302216                     5               14.2465
33358720              7.302216                     5               18.5075
33358720              7.302216                     5               22.7685
33358720              6.078498                     5                7.8555
33358720              6.078498                     5               12.1165
33358720              6.078498                     5                16.377
33358720              6.078498                     5                20.638
33358720              4.854781                     5                8.5655
33358720              4.854781                     5               12.8265
33358720              4.854781                     5               17.0875
33358720              4.854781                     5                21.348
33358720              3.631235                     5                10.696
33358720              3.631235                     5                14.957
33358720              3.631235                     5               19.2175
33358720              3.631235                     5               23.4785
33358720              4.854781                     5                 9.986
33358720              4.854781                     5               14.2465
33358720              4.854781                     5               18.5075
33358720              4.854781                     5               22.7685
33358720              3.631235                     5                7.8555
33358720              3.631235                     5               12.1165
33358720              3.631235                     5                16.377
33358720              3.631235                     5                20.638
33358720              2.407518                     5                8.5655
33358720              2.407518                     5               12.8265
33358720              2.407518                     5               17.0875
33358720              2.407518                     5                21.348
33358720                1.1838                     5                10.696
33358720                1.1838                     5                14.957
33358720                1.1838                     5               19.2175
33358720                1.1838                     5               23.4785
33358720              2.407518                     5                 9.986
33358720              2.407518                     5               14.2465
33358720              2.407518                     5               18.5075
33358720              2.407518                     5               22.7685
33358720                1.1838                     5                7.8555
33358720                1.1838                     5               12.1165
33358720                1.1838                     5                16.377
33358720                1.1838                     5                20.638
33358752             15.865667                     5                6.7155
33358752              13.42303                     5                6.7155
33358752             10.975766                     5                6.7155
33358752              8.528332                     5                6.7155
33358752              6.080897                     5                6.7155
33358752              3.633634                     5                6.7155
33358752              1.181402                     5                6.7155
33358752              3.501146              1.890116             25.417665
33358752               2.54079              0.884499             23.930168
33358752              3.054499              3.487856             26.805458
33358752                4.5661              1.355818              26.64278
33358752              8.046629              6.079972             23.704317
33358752             16.540024              6.568046             23.632166
33358752              9.970353              3.322983             25.101884
33358752             10.720424              6.247025                  23.5
33358752              14.36773              2.626106                  23.5
33358752              5.243251              5.174914               27.3788
33358752              9.525554              0.431782             28.770817
33358752              0.915821              2.025573             29.542736
33358752              3.148477              6.458625             27.542153
33358752             13.104022               6.03077             30.473053
33358752               2.51423              7.356921             29.619921
33358752              8.836866              3.441655             28.525172
33358752              12.03167               9.88953             31.612419
33358752               8.10008              7.413573             28.138851
33358752              11.49927              0.614284             33.948731
33358752              4.574598              0.738053             31.570672
33358752              4.378793              3.146574             30.179086
33358752              5.755443              6.098583             32.086011
33358752             14.718632              1.107363             33.948731
33358752              2.411064              8.358802             33.948731
33358752             14.565706              0.744267             33.051709
33358752               2.72763              1.642599             32.200989
33358752             10.418214              1.108748             27.939105
33358752             15.840997              3.248456             30.298274
33358720              7.013012              0.463302             26.295063
33358720             15.958701               0.76125              24.08702
33358720              8.127918              2.592066                  23.5
33358720              4.086803              6.512682             23.521762
33358720              8.336893              8.871208             24.365167
33358720             15.718139              9.730246             24.716777
33358720              3.241348              9.979498             25.317487
33358720              0.921212              4.694995                  23.5
33358720             11.362051              1.017456             25.801829
33358720              12.02783              4.213442             24.272431
33358720              3.748778              0.368656                  23.5
33358720              3.692548              4.504897             27.727198
33358720              1.354207              2.158404             27.265521
33358720              8.822955              1.904485             23.650061
33358720               1.87264              6.558606             28.564524
33358720              3.693243               6.91037             28.916107
33358720             13.609782              0.167796             26.249504
33358720              1.474674              6.766893             26.753784
33358720             13.973841              6.589869             27.051622
33358720              6.044142              7.658991             26.716504
33358720             12.431546              9.329183               23.6593
33358720             11.643532               8.65165             25.366022
33358720              2.051352              0.532113             33.948731
33358720             14.379184              0.593964             31.231962
33358720              4.169922              1.293724             33.948731
33358720              4.370469              9.365379             29.915474
33358720             14.390702              9.339417             32.472523
33358720             15.711996              0.613573             27.286039
33358720             10.535026              1.603452              31.96952
33358720             16.369426              2.049677             29.986401
33358720              3.406705              4.914195             27.996512
33358720              1.659051              6.846248             33.647464
33358720              5.554742              8.563933             28.014634
300
Atoms. Timestep: 10
33358752      1.09670941798784                     5      35.2552412155796
33358752      1.09670941798784                     5      37.7152412155796
33358752      1.09670941798784                     5      40.1752412155796
33358752      1.09670941798784                     5      42.6352412155796
33358752      1.09670941798784                     5      45.0952412155796
33358752      1.09670941798784                     5      47.5552412155796
33358752      1.09670941798784                     5    0.0152412155795895
33358752      3.23817141798784                     5      34.0252412155796
33358752      3.23817141798784                     5      36.4852412155796
33358752      3.23817141798784                     5      38.9452412155796
33358752      3.23817141798784                     5      41.4052412155796
33358752      3.23817141798784                     5      43.8652412155796
33358752      3.23817141798784                     5      46.3252412155796
33358752      3.23817141798784                     5      48.7852412155796
33358752      2.52446541798784                     5      35.2552412155796
33358752      2.52446541798784                     5      37.7152412155796
33358752      2.52446541798784                     5      40.1752412155796
33358752      2.52446541798784                     5      42.6352412155796
33358752      2.52446541798784                     5      45.0952412155796
33358752      2.52446541798784                     5      47.5552412155796
33358752      2.52446541798784                     5    0.0152412155795895
33358752      4.66592741798785                     5      34.0252412155796
33358752      4.66592741798785                     5      36.4852412155796
33358752      4.66592741798785                     5      38.9452412155796
33358752      4.66592741798785                     5      41.4052412155796
33358752      4.66592741798785                     5      43.8652412155796
33358752      4.66592741798785                     5      46.3252412155796
33358752      4.66592741798785                     5      48.7852412155796
33358752      5.37963441798785                     5      35.2552412155796
33358752      5.37963441798785                     5      37.7152412155796
33358720      5.37963441798785                     5      40.1752412155796
33358720      5.37963441798785                     5      42.6352412155796
33358720      5.37963441798785                     5      45.0952412155796
33358720      5.37963441798785                     5      47.5552412155796
33358720      5.37963441798785                     5    0.0152412155795895
33358720      7.52109641798785                     5      34.0252412155796
33358720      7.52109641798785                     5      36.4852412155796
33358720      7.52109641798785                     5      38.9452412155796
33358720      7.52109641798785                     5      41.4052412155796
33358720      7.52109641798785                     5      43.8652412155796
33358720      7.52109641798785                     5      46.3252412155796
33358720      7.52109641798785                     5      48.7852412155796
33358720      6.80739041798785                     5      35.2552412155796
33358720      6.80739041798785                     5      37.7152412155796
33358720      6.80739041798785                     5      40.1752412155796
33358720      6.80739041798785                     5      42.6352412155796
33358720      6.80739041798785                     5      45.0952412155796
33358720      6.80739041798785                     5      47.5552412155796
33358720      6.80739041798785                     5    0.0152412155795895
33358720      8.94885241798785                     5      34.0252412155796
33358720      8.94885241798785                     5      36.4852412155796
33358720      8.94885241798785                     5      38.9452412155796
33358720      8.94885241798785                     5      41.4052412155796
33358720      8.94885241798785                     5      43.8652412155796
33358720      8.94885241798785                     5      46.3252412155796
33358720      8.94885241798785                     5      48.7852412155796
33358720      9.66255941798785                     5      35.2552412155796
33358720      9.66255941798785                     5      37.7152412155796
33358720      9.66255941798785                     5      40.1752412155796
33358720      9.66255941798785                     5      42.6352412155796
33358720      9.66255941798785                     5      45.0952412155796
33358720      9.66255941798785                     5      47.5552412155796
33358720      9.66255941798785                     5    0.0152412155795895
33358720      11.8040214179878                     5      34.0252412155796
33358720      11.8040214179878                     5      36.4852412155796
33358720      11.8040214179878                     5      38.9452412155796
33358720      11.8040214179878                     5      41.4052412155796
33358720      11.8040214179878                     5      43.8652412155796
33358720      11.8040214179878                     5      46.3252412155796
33358720      11.8040214179878                     5      48.7852412155796
33358720      11.0903154179878                     5      35.2552412155796
33358720      11.0903154179878                     5      37.7152412155796
33358720      11.0903154179878                     5      40.1752412155796
33358720      11.0903154179878                     5      42.6352412155796
33358720      11.0903154179878                     5      45.0952412155796
33358720      11.0903154179878                     5      47.5552412155796
33358720      11.0903154179878                     5    0.0152412155795895
33358720      13.2317774179878                     5      34.0252412155796
33358720      13.2317774179878                     5      36.4852412155796
33358720      13.2317774179878                     5      38.9452412155796
33358720      13.2317774179878                     5      41.4052412155796
33358720      13.2317774179878                     5      43.8652412155796
33358720      13.2317774179878                     5      46.3252412155796
33358720      13.2317774179878                     5      48.7852412155796
33358720      13.9454844179878                     5      35.2552412155796
33358720      13.9454844179878                     5      37.7152412155796
33358720      13.9454844179878                     5      40.1752412155796
33358720      13.9454844179878                     5      42.6352412155796
33358720      13.9454844179878                     5      45.0952412155796
33358720      13.9454844179878                     5      47.5552412155796
33358720      13.9454844179878                     5    0.0152412155795895
33358720      16.0869464179878                     5      34.0252412155796
33358720      16.0869464179878                     5      36.4852412155796
33358720      16.0869464179878                     5      38.9452412155796
33358720      16.0869464179878                     5      41.4052412155796
33358720      16.0869464179878                     5      43.8652412155796
33358720      16.0869464179878                     5      46.3252412155796
33358720      16.0869464179878                     5      48.7852412155796
33358720      15.3732404179878                     5      35.2552412155796