LAMMPS (30 Aug 2012)
units		metal
boundary	p p p
atom_style	atomic
read_data	struct.lammps
  orthogonal box = (0 0 0) to (17.1317 10 50)
  1 by 1 by 1 MPI processor grid
  300 atoms

pair_style      airebo 3.0
pair_coeff      * * CH.airebo C H

mass	1	12.0
mass	2	1.0

group		fixPosH id <> 1 120
120 atoms in group fixPosH
group		fixPosL id <> 121 239
119 atoms in group fixPosL
group		optPos  id <> 240 1000
61 atoms in group optPos
fix             0       fixPosH setforce NULL 0.0 NULL
fix             1       fixPosH aveforce 0.0 0.0 0.0
fix		2	fixPosL setforce 0.0 0.0 0.0
fix 		3	optPos	setforce NULL 0.0 NULL

neighbor        0.2 bin
neigh_modify	every 1 delay 0 check yes

timestep	0.002
thermo 		1
thermo_style    custom step  pe etotal lx ly lz 

dump		1 all xyz 10000000 dump.atom
dump_modify	1 format "%d  %20.15g  %20.15g  %20.15g" 
#fix 		8 all box/relax iso 0.0 
min_style	cg
minimize	1.0e-12 1.0e-12 10 10
Memory usage per processor = 3.26767 Mbytes
Step PotEng TotEng Lx Ly Lz 
       0    619.53968    619.53968      17.1317           10           50 
       1    16.171026    16.171026      17.1317           10           50 
       2   -431.16017   -431.16017      17.1317           10           50 
       3   -701.26856   -701.26856      17.1317           10           50 
       4   -850.00008   -850.00008      17.1317           10           50 
       5   -940.93345   -940.93345      17.1317           10           50 
       6    -1011.629    -1011.629      17.1317           10           50 
       7   -1066.7642   -1066.7642      17.1317           10           50 
       8   -1097.4788   -1097.4788      17.1317           10           50 
       9   -1116.4483   -1116.4483      17.1317           10           50 
      10   -1132.4593   -1132.4593      17.1317           10           50 
Loop time of 0.378301 on 1 procs for 10 steps with 300 atoms

Minimization stats:
  Stopping criterion = max force evaluations
  Energy initial, next-to-last, final = 
         619.539677367     -1116.44830161     -1132.45926846
  Force two-norm initial, final = 6468.56 122.35
  Force max component initial, final = 6127.53 71.0066
  Final line search alpha, max atom move = 0.00143348 0.101786
  Iterations, force evaluations = 10 10

Pair  time (%) = 0.144874 (38.2959)
Neigh time (%) = 0.229941 (60.7824)
Comm  time (%) = 0.00146604 (0.387531)
Outpt time (%) = 0.000145674 (0.0385074)
Other time (%) = 0.00187492 (0.495617)

Nlocal:    300 ave 300 max 300 min
Histogram: 1 0 0 0 0 0 0 0 0 0
Nghost:    2428 ave 2428 max 2428 min
Histogram: 1 0 0 0 0 0 0 0 0 0
Neighs:    0 ave 0 max 0 min
Histogram: 1 0 0 0 0 0 0 0 0 0
FullNghs:  46106 ave 46106 max 46106 min
Histogram: 1 0 0 0 0 0 0 0 0 0

Total # of neighbors = 46106
Ave neighs/atom = 153.687
Neighbor list builds = 10
Dangerous builds = 10
min_modify line quadratic

clear
