search structure

300 atoms
2  atom types

0   17.131700 xlo xhi
0   10.000000 ylo yhi
0   50.000000 zlo zhi

Atoms

1 2 1.096704 5.000000 35.255231
2 2 1.096704 5.000000 37.715231
3 2 1.096704 5.000000 40.175231
4 2 1.096704 5.000000 42.635231
5 2 1.096704 5.000000 45.095231
6 2 1.096704 5.000000 47.555231
7 2 1.096704 5.000000 50.015231
8 2 3.238166 5.000000 34.025231
9 2 3.238166 5.000000 36.485231
10 2 3.238166 5.000000 38.945231
11 2 3.238166 5.000000 41.405231
12 2 3.238166 5.000000 43.865231
13 2 3.238166 5.000000 46.325231
14 2 3.238166 5.000000 48.785231
15 2 2.524460 5.000000 35.255231
16 2 2.524460 5.000000 37.715231
17 2 2.524460 5.000000 40.175231
18 2 2.524460 5.000000 42.635231
19 2 2.524460 5.000000 45.095231
20 2 2.524460 5.000000 47.555231
21 2 2.524460 5.000000 50.015231
22 2 4.665922 5.000000 34.025231
23 2 4.665922 5.000000 36.485231
24 2 4.665922 5.000000 38.945231
25 2 4.665922 5.000000 41.405231
26 2 4.665922 5.000000 43.865231
27 2 4.665922 5.000000 46.325231
28 2 4.665922 5.000000 48.785231
29 2 5.379629 5.000000 35.255231
30 2 5.379629 5.000000 37.715231
31 1 5.379629 5.000000 40.175231
32 1 5.379629 5.000000 42.635231
33 1 5.379629 5.000000 45.095231
34 1 5.379629 5.000000 47.555231
35 1 5.379629 5.000000 50.015231
36 1 7.521091 5.000000 34.025231
37 1 7.521091 5.000000 36.485231
38 1 7.521091 5.000000 38.945231
39 1 7.521091 5.000000 41.405231
40 1 7.521091 5.000000 43.865231
41 1 7.521091 5.000000 46.325231
42 1 7.521091 5.000000 48.785231
43 1 6.807385 5.000000 35.255231
44 1 6.807385 5.000000 37.715231
45 1 6.807385 5.000000 40.175231
46 1 6.807385 5.000000 42.635231
47 1 6.807385 5.000000 45.095231
48 1 6.807385 5.000000 47.555231
49 1 6.807385 5.000000 50.015231
50 1 8.948847 5.000000 34.025231
51 1 8.948847 5.000000 36.485231
52 1 8.948847 5.000000 38.945231
53 1 8.948847 5.000000 41.405231
54 1 8.948847 5.000000 43.865231
55 1 8.948847 5.000000 46.325231
56 1 8.948847 5.000000 48.785231
57 1 9.662554 5.000000 35.255231
58 1 9.662554 5.000000 37.715231
59 1 9.662554 5.000000 40.175231
60 1 9.662554 5.000000 42.635231
61 1 9.662554 5.000000 45.095231
62 1 9.662554 5.000000 47.555231
63 1 9.662554 5.000000 50.015231
64 1 11.804016 5.000000 34.025231
65 1 11.804016 5.000000 36.485231
66 1 11.804016 5.000000 38.945231
67 1 11.804016 5.000000 41.405231
68 1 11.804016 5.000000 43.865231
69 1 11.804016 5.000000 46.325231
70 1 11.804016 5.000000 48.785231
71 1 11.090310 5.000000 35.255231
72 1 11.090310 5.000000 37.715231
73 1 11.090310 5.000000 40.175231
74 1 11.090310 5.000000 42.635231
75 1 11.090310 5.000000 45.095231
76 1 11.090310 5.000000 47.555231
77 1 11.090310 5.000000 50.015231
78 1 13.231772 5.000000 34.025231
79 1 13.231772 5.000000 36.485231
80 1 13.231772 5.000000 38.945231
81 1 13.231772 5.000000 41.405231
82 1 13.231772 5.000000 43.865231
83 1 13.231772 5.000000 46.325231
84 1 13.231772 5.000000 48.785231
85 1 13.945479 5.000000 35.255231
86 1 13.945479 5.000000 37.715231
87 1 13.945479 5.000000 40.175231
88 1 13.945479 5.000000 42.635231
89 1 13.945479 5.000000 45.095231
90 1 13.945479 5.000000 47.555231
91 1 13.945479 5.000000 50.015231
92 1 16.086941 5.000000 34.025231
93 1 16.086941 5.000000 36.485231
94 1 16.086941 5.000000 38.945231
95 1 16.086941 5.000000 41.405231
96 1 16.086941 5.000000 43.865231
97 1 16.086941 5.000000 46.325231
98 1 16.086941 5.000000 48.785231
99 1 15.373235 5.000000 35.255231
100 1 15.373235 5.000000 37.715231
101 1 15.373235 5.000000 40.175231
102 1 15.373235 5.000000 42.635231
103 1 15.373235 5.000000 45.095231
104 1 15.373235 5.000000 47.555231
105 1 15.373235 5.000000 50.015231
106 1 0.382997 5.000000 34.025231
107 1 0.382997 5.000000 36.485231
108 1 0.382997 5.000000 38.945231
109 1 0.382997 5.000000 41.405231
110 1 0.382997 5.000000 43.865231
111 1 0.382997 5.000000 46.325231
112 1 0.382997 5.000000 48.785231
113 2 0.526561 5.000000 51.002731
114 2 3.094431 5.000000 51.002731
115 2 4.811713 5.000000 51.003731
116 2 7.377356 5.000000 51.002731
117 2 9.094638 5.000000 51.003731
118 2 11.660281 5.000000 51.002731
119 2 13.377563 5.000000 51.003731
120 2 15.943206 5.000000 51.002731
121 1 -0.039917 5.000000 8.565500
122 1 -0.039917 5.000000 12.826500
123 1 -0.039917 5.000000 17.087500
124 1 -0.039917 5.000000 21.348000
125 1 -0.039917 5.000000 9.986000
126 1 -0.039917 5.000000 14.246500
127 1 -0.039917 5.000000 18.507500
128 1 -0.039917 5.000000 22.768500
129 1 15.868066 5.000000 10.696000
130 1 15.868066 5.000000 14.957000
131 1 15.868066 5.000000 19.217500
132 1 15.868066 5.000000 23.478500
133 1 15.868066 5.000000 7.855500
134 1 15.868066 5.000000 12.116500
135 1 15.868066 5.000000 16.377000
136 1 15.868066 5.000000 20.638000
137 1 14.644348 5.000000 8.565500
138 1 14.644348 5.000000 12.826500
139 1 14.644348 5.000000 17.087500
140 1 14.644348 5.000000 21.348000
141 1 13.420631 5.000000 10.696000
142 1 13.420631 5.000000 14.957000
143 1 13.420631 5.000000 19.217500
144 1 13.420631 5.000000 23.478500
145 1 14.644348 5.000000 9.986000
146 1 14.644348 5.000000 14.246500
147 1 14.644348 5.000000 18.507500
148 1 14.644348 5.000000 22.768500
149 1 13.420631 5.000000 7.855500
150 1 13.420631 5.000000 12.116500
151 1 13.420631 5.000000 16.377000
152 1 13.420631 5.000000 20.638000
153 1 12.197085 5.000000 8.565500
154 1 12.197085 5.000000 12.826500
155 1 12.197085 5.000000 17.087500
156 1 12.197085 5.000000 21.348000
157 1 10.973368 5.000000 10.696000
158 1 10.973368 5.000000 14.957000
159 1 10.973368 5.000000 19.217500
160 1 10.973368 5.000000 23.478500
161 1 12.197085 5.000000 9.986000
162 1 12.197085 5.000000 14.246500
163 1 12.197085 5.000000 18.507500
164 1 12.197085 5.000000 22.768500
165 1 10.973368 5.000000 7.855500
166 1 10.973368 5.000000 12.116500
167 1 10.973368 5.000000 16.377000
168 1 10.973368 5.000000 20.638000
169 1 9.749650 5.000000 8.565500
170 1 9.749650 5.000000 12.826500
171 1 9.749650 5.000000 17.087500
172 1 9.749650 5.000000 21.348000
173 1 8.525933 5.000000 10.696000
174 1 8.525933 5.000000 14.957000
175 1 8.525933 5.000000 19.217500
176 1 8.525933 5.000000 23.478500
177 1 9.749650 5.000000 9.986000
178 1 9.749650 5.000000 14.246500
179 1 9.749650 5.000000 18.507500
180 1 9.749650 5.000000 22.768500
181 1 8.525933 5.000000 7.855500
182 1 8.525933 5.000000 12.116500
183 1 8.525933 5.000000 16.377000
184 1 8.525933 5.000000 20.638000
185 1 7.302216 5.000000 8.565500
186 1 7.302216 5.000000 12.826500
187 1 7.302216 5.000000 17.087500
188 1 7.302216 5.000000 21.348000
189 1 6.078498 5.000000 10.696000
190 1 6.078498 5.000000 14.957000
191 1 6.078498 5.000000 19.217500
192 1 6.078498 5.000000 23.478500
193 1 7.302216 5.000000 9.986000
194 1 7.302216 5.000000 14.246500
195 1 7.302216 5.000000 18.507500
196 1 7.302216 5.000000 22.768500
197 1 6.078498 5.000000 7.855500
198 1 6.078498 5.000000 12.116500
199 1 6.078498 5.000000 16.377000
200 1 6.078498 5.000000 20.638000
201 1 4.854781 5.000000 8.565500
202 1 4.854781 5.000000 12.826500
203 1 4.854781 5.000000 17.087500
204 1 4.854781 5.000000 21.348000
205 1 3.631235 5.000000 10.696000
206 1 3.631235 5.000000 14.957000
207 1 3.631235 5.000000 19.217500
208 1 3.631235 5.000000 23.478500
209 1 4.854781 5.000000 9.986000
210 1 4.854781 5.000000 14.246500
211 1 4.854781 5.000000 18.507500
212 1 4.854781 5.000000 22.768500
213 1 3.631235 5.000000 7.855500
214 1 3.631235 5.000000 12.116500
215 1 3.631235 5.000000 16.377000
216 1 3.631235 5.000000 20.638000
217 1 2.407518 5.000000 8.565500
218 1 2.407518 5.000000 12.826500
219 1 2.407518 5.000000 17.087500
220 1 2.407518 5.000000 21.348000
221 1 1.183800 5.000000 10.696000
222 1 1.183800 5.000000 14.957000
223 1 1.183800 5.000000 19.217500
224 1 1.183800 5.000000 23.478500
225 1 2.407518 5.000000 9.986000
226 1 2.407518 5.000000 14.246500
227 1 2.407518 5.000000 18.507500
228 1 2.407518 5.000000 22.768500
229 1 1.183800 5.000000 7.855500
230 1 1.183800 5.000000 12.116500
231 1 1.183800 5.000000 16.377000
232 1 1.183800 5.000000 20.638000
233 2 15.865667 5.000000 6.715500
234 2 13.423030 5.000000 6.715500
235 2 10.975766 5.000000 6.715500
236 2 8.528332 5.000000 6.715500
237 2 6.080897 5.000000 6.715500
238 2 3.633634 5.000000 6.715500
239 2 1.181402 5.000000 6.715500
240 2 3.501146 1.890116 25.417665
241 2 2.540790 0.884499 23.930168
242 2 3.054499 3.487856 26.805458
243 2 4.566100 1.355818 26.642780
244 2 8.046629 6.079972 23.704317
245 2 16.540024 6.568046 23.632166
246 2 9.970353 3.322983 25.101884
247 2 10.720424 6.247025 23.500000
248 2 14.367730 2.626106 23.500000
249 2 5.243251 5.174914 27.378800
250 2 9.525554 0.431782 28.770817
251 2 0.915821 2.025573 29.542736
252 2 3.148477 6.458625 27.542153
253 2 13.104022 6.030770 30.473053
254 2 2.514230 7.356921 29.619921
255 2 8.836866 3.441655 28.525172
256 2 12.031670 9.889530 31.612419
257 2 8.100080 7.413573 28.138851
258 2 11.499270 0.614284 33.948731
259 2 4.574598 0.738053 31.570672
260 2 4.378793 3.146574 30.179086
261 2 5.755443 6.098583 32.086011
262 2 14.718632 1.107363 33.948731
263 2 2.411064 8.358802 33.948731
264 2 14.565706 0.744267 33.051709
265 2 2.727630 1.642599 32.200989
266 2 10.418214 1.108748 27.939105
267 2 15.840997 3.248456 30.298274
268 1 7.013012 0.463302 26.295063
269 1 15.958701 0.761250 24.087020
270 1 8.127918 2.592066 23.500000
271 1 4.086803 6.512682 23.521762
272 1 8.336893 8.871208 24.365167
273 1 15.718139 9.730246 24.716777
274 1 3.241348 9.979498 25.317487
275 1 0.921212 4.694995 23.500000
276 1 11.362051 1.017456 25.801829
277 1 12.027830 4.213442 24.272431
278 1 3.748778 0.368656 23.500000
279 1 3.692548 4.504897 27.727198
280 1 1.354207 2.158404 27.265521
281 1 8.822955 1.904485 23.650061
282 1 1.872640 6.558606 28.564524
283 1 3.693243 6.910370 28.916107
284 1 13.609782 0.167796 26.249504
285 1 1.474674 6.766893 26.753784
286 1 13.973841 6.589869 27.051622
287 1 6.044142 7.658991 26.716504
288 1 12.431546 9.329183 23.659300
289 1 11.643532 8.651650 25.366022
290 1 2.051352 0.532113 33.948731
291 1 14.379184 0.593964 31.231962
292 1 4.169922 1.293724 33.948731
293 1 4.370469 9.365379 29.915474
294 1 14.390702 9.339417 32.472523
295 1 15.711996 0.613573 27.286039
296 1 10.535026 1.603452 31.969520
297 1 16.369426 2.049677 29.986401
298 1 3.406705 4.914195 27.996512
299 1 1.659051 6.846248 33.647464
300 1 5.554742 8.563933 28.014634
