300
Atoms. Timestep: 0
536970144             14.777263                     5             35.718456
536970144             14.777263                     5             38.178456
536970144             14.777263                     5             40.638456
536970144             14.777263                     5             43.098456
536970144             14.777263                     5             45.558456
536970144             14.777263                     5             48.018456
536970144             14.777263                     5     0.478456000000001
536970144             16.918726                     5             34.488456
536970144             16.918726                     5             36.948456
536970144             16.918726                     5             39.408456
536970144             16.918726                     5             41.868456
536970144             16.918726                     5             44.328456
536970144             16.918726                     5             46.788456
536970144             16.918726                     5             49.248456
536970144             16.205019                     5             35.718456
536970144             16.205019                     5             38.178456
536970144             16.205019                     5             40.638456
536970144             16.205019                     5             43.098456
536970144             16.205019                     5             45.558456
536970144             16.205019                     5             48.018456
536970144             16.205019                     5     0.478456000000001
536970144              1.214781                     5             34.488456
536970144              1.214781                     5             36.948456
536970144              1.214781                     5             39.408456
536970144              1.214781                     5             41.868456
536970144              1.214781                     5             44.328456
536970144              1.214781                     5             46.788456
536970144              1.214781                     5             49.248456
536970144              1.928488                     5             35.718456
536970144              1.928488                     5             38.178456
536970112              1.928488                     5             40.638456
536970112              1.928488                     5             43.098456
536970112              1.928488                     5             45.558456
536970112              1.928488                     5             48.018456
536970112              1.928488                     5     0.478456000000001
536970112              4.069951                     5             34.488456
536970112              4.069951                     5             36.948456
536970112              4.069951                     5             39.408456
536970112              4.069951                     5             41.868456
536970112              4.069951                     5             44.328456
536970112              4.069951                     5             46.788456
536970112              4.069951                     5             49.248456
536970112              3.356244                     5             35.718456
536970112              3.356244                     5             38.178456
536970112              3.356244                     5             40.638456
536970112              3.356244                     5             43.098456
536970112              3.356244                     5             45.558456
536970112              3.356244                     5             48.018456
536970112              3.356244                     5     0.478456000000001
536970112              5.497706                     5             34.488456
536970112              5.497706                     5             36.948456
536970112              5.497706                     5             39.408456
536970112              5.497706                     5             41.868456
536970112              5.497706                     5             44.328456
536970112              5.497706                     5             46.788456
536970112              5.497706                     5             49.248456
536970112              6.211413                     5             35.718456
536970112              6.211413                     5             38.178456
536970112              6.211413                     5             40.638456
536970112              6.211413                     5             43.098456
536970112              6.211413                     5             45.558456
536970112              6.211413                     5             48.018456
536970112              6.211413                     5     0.478456000000001
536970112              8.352876                     5             34.488456
536970112              8.352876                     5             36.948456
536970112              8.352876                     5             39.408456
536970112              8.352876                     5             41.868456
536970112              8.352876                     5             44.328456
536970112              8.352876                     5             46.788456
536970112              8.352876                     5             49.248456
536970112              7.639169                     5             35.718456
536970112              7.639169                     5             38.178456
536970112              7.639169                     5             40.638456
536970112              7.639169                     5             43.098456
536970112              7.639169                     5             45.558456
536970112              7.639169                     5             48.018456
536970112              7.639169                     5     0.478456000000001
536970112              9.780631                     5             34.488456
536970112              9.780631                     5             36.948456
536970112              9.780631                     5             39.408456
536970112              9.780631                     5             41.868456
536970112              9.780631                     5             44.328456
536970112              9.780631                     5             46.788456
536970112              9.780631                     5             49.248456
536970112             10.494338                     5             35.718456
536970112             10.494338                     5             38.178456
536970112             10.494338                     5             40.638456
536970112             10.494338                     5             43.098456
536970112             10.494338                     5             45.558456
536970112             10.494338                     5             48.018456
536970112             10.494338                     5     0.478456000000001
536970112             12.635801                     5             34.488456
536970112             12.635801                     5             36.948456
536970112             12.635801                     5             39.408456
536970112             12.635801                     5             41.868456
536970112             12.635801                     5             44.328456
536970112             12.635801                     5             46.788456
536970112             12.635801                     5             49.248456
536970112             11.922094                     5             35.718456
536970112             11.922094                     5             38.178456
536970112             11.922094                     5             40.638456
536970112             11.922094                     5             43.098456
536970112             11.922094                     5             45.558456
536970112             11.922094                     5             48.018456
536970112             11.922094                     5     0.478456000000001
536970112             14.063556                     5             34.488456
536970112             14.063556                     5             36.948456
536970112             14.063556                     5             39.408456
536970112             14.063556                     5             41.868456
536970112             14.063556                     5             44.328456
536970112             14.063556                     5             46.788456
536970112             14.063556                     5             49.248456
536970144              14.20712                     5              1.465956
536970144             16.774991                     5              1.465956
536970144              1.360572                     5              1.466956
536970144              3.926216                     5              1.465956
536970144              5.643497                     5              1.466956
536970144              8.209141                     5              1.465956
536970144              9.926422                     5              1.466956
536970144             12.492066                     5              1.465956
536970112             17.091783                     5                8.5655
536970112             17.091783                     5               12.8265
536970112             17.091783                     5               17.0875
536970112             17.091783                     5                21.348
536970112             17.091783                     5                 9.986
536970112             17.091783                     5               14.2465
536970112             17.091783                     5               18.5075
536970112             17.091783                     5               22.7685
536970112             15.868066                     5                10.696
536970112             15.868066                     5                14.957
536970112             15.868066                     5               19.2175
536970112             15.868066                     5               23.4785
536970112             15.868066                     5                7.8555
536970112             15.868066                     5               12.1165
536970112             15.868066                     5                16.377
536970112             15.868066                     5                20.638
536970112             14.644348                     5                8.5655
536970112             14.644348                     5               12.8265
536970112             14.644348                     5               17.0875
536970112             14.644348                     5                21.348
536970112             13.420631                     5                10.696
536970112             13.420631                     5                14.957
536970112             13.420631                     5               19.2175
536970112             13.420631                     5               23.4785
536970112             14.644348                     5                 9.986
536970112             14.644348                     5               14.2465
536970112             14.644348                     5               18.5075
536970112             14.644348                     5               22.7685
536970112             13.420631                     5                7.8555
536970112             13.420631                     5               12.1165
536970112             13.420631                     5                16.377
536970112             13.420631                     5                20.638
536970112             12.197085                     5                8.5655
536970112             12.197085                     5               12.8265
536970112             12.197085                     5               17.0875
536970112             12.197085                     5                21.348
536970112             10.973368                     5                10.696
536970112             10.973368                     5                14.957
536970112             10.973368                     5               19.2175
536970112             10.973368                     5               23.4785
536970112             12.197085                     5                 9.986
536970112             12.197085                     5               14.2465
536970112             12.197085                     5               18.5075
536970112             12.197085                     5               22.7685
536970112             10.973368                     5                7.8555
536970112             10.973368                     5               12.1165
536970112             10.973368                     5                16.377
536970112             10.973368                     5                20.638
536970112               9.74965                     5                8.5655
536970112               9.74965                     5               12.8265
536970112               9.74965                     5               17.0875
536970112               9.74965                     5                21.348
536970112              8.525933                     5                10.696
536970112              8.525933                     5                14.957
536970112              8.525933                     5               19.2175
536970112              8.525933                     5               23.4785
536970112               9.74965                     5                 9.986
536970112               9.74965                     5               14.2465
536970112               9.74965                     5               18.5075
536970112               9.74965                     5               22.7685
536970112              8.525933                     5                7.8555
536970112              8.525933                     5               12.1165
536970112              8.525933                     5                16.377
536970112              8.525933                     5                20.638
536970112              7.302216                     5                8.5655
536970112              7.302216                     5               12.8265
536970112              7.302216                     5               17.0875
536970112              7.302216                     5                21.348
536970112              6.078498                     5                10.696
536970112              6.078498                     5                14.957
536970112              6.078498                     5               19.2175
536970112              6.078498                     5               23.4785
536970112              7.302216                     5                 9.986
536970112              7.302216                     5               14.2465
536970112              7.302216                     5               18.5075
536970112              7.302216                     5               22.7685
536970112              6.078498                     5                7.8555
536970112              6.078498                     5               12.1165
536970112              6.078498                     5                16.377
536970112              6.078498                     5                20.638
536970112              4.854781                     5                8.5655
536970112              4.854781                     5               12.8265
536970112              4.854781                     5               17.0875
536970112              4.854781                     5                21.348
536970112              3.631235                     5                10.696
536970112              3.631235                     5                14.957
536970112              3.631235                     5               19.2175
536970112              3.631235                     5               23.4785
536970112              4.854781                     5                 9.986
536970112              4.854781                     5               14.2465
536970112              4.854781                     5               18.5075
536970112              4.854781                     5               22.7685
536970112              3.631235                     5                7.8555
536970112              3.631235                     5               12.1165
536970112              3.631235                     5                16.377
536970112              3.631235                     5                20.638
536970112              2.407518                     5                8.5655
536970112              2.407518                     5               12.8265
536970112              2.407518                     5               17.0875
536970112              2.407518                     5                21.348
536970112                1.1838                     5                10.696
536970112                1.1838                     5                14.957
536970112                1.1838                     5               19.2175
536970112                1.1838                     5               23.4785
536970112              2.407518                     5                 9.986
536970112              2.407518                     5               14.2465
536970112              2.407518                     5               18.5075
536970112              2.407518                     5               22.7685
536970112                1.1838                     5                7.8555
536970112                1.1838                     5               12.1165
536970112                1.1838                     5                16.377
536970112                1.1838                     5                20.638
536970144             15.865667                     5                6.7155
536970144              13.42303                     5                6.7155
536970144             10.975766                     5                6.7155
536970144              8.528332                     5                6.7155
536970144              6.080897                     5                6.7155
536970144              3.633634                     5                6.7155
536970144              1.181402                     5                6.7155
536970144             16.360213              2.000052             27.459934
536970144             15.165295              1.711798                  23.5
536970144             13.659177              2.443384             26.276679
536970144             13.354426              3.975601              25.99617
536970144             15.514482              0.876967             27.047663
536970144             15.640311              1.838026             30.209944
536970144              8.751028              5.192098                  23.5
536970144             15.550627              3.843874              23.65485
536970144             12.046782              8.150846             26.469952
536970144              5.212088              8.976222             27.729144
536970144              2.037338              4.981344             28.052037
536970144              4.295742              9.311527             25.882632
536970144              0.441627              8.149944             30.080162
536970144             14.223624                3.4104             29.883178
536970144             14.298239              3.729016             29.232108
536970144              6.241714              6.630905             24.394273
536970144             10.782482              6.861835              31.04911
536970144              6.229195               8.15585             29.143301
536970144              3.352944              5.095124              30.93306
536970144              1.979021              4.380336             30.539217
536970144              3.412045              4.475976              33.65143
536970144              4.770405              0.639082             30.015547
536970144              15.74705              2.382888             30.351057
536970144             10.146152              1.130358             34.411956
536970144              6.184567              0.509622             31.921779
536970144             10.019945               6.01174             32.628375
536970144              11.43751              6.282827             30.312912
536970144              9.087479               7.55373             29.763518
536970112             15.093917              7.456152             25.339943
536970112             12.268389              4.047361                  23.5
536970112             16.365579               3.41716             24.984989
536970112             12.698249              3.969813                  23.5
536970112              7.053195              7.512175             24.252187
536970112             11.071777              2.751589                  23.5
536970112              2.853648              9.325445             27.654712
536970112             16.935424              9.847387             25.854268
536970112              2.324086              5.178208                  23.5
536970112             14.115079              5.607711              25.69479
536970112              0.857648              8.220076                  23.5
536970112             16.896372              6.786897             26.779258
536970112             16.733818              6.873899             29.293832
536970112             17.072739               4.14053             30.272816
536970112               1.68289              9.074979             28.246956
536970112              4.661217              8.949487             31.182531
536970112              8.184256               0.09261             29.822884
536970112             15.099973              7.262006             27.301487
536970112             16.873773              0.475954             33.324861
536970112              9.482909              1.172979             24.629523
536970112              2.897811              2.273178             25.353501
536970112              8.402333              3.092042             23.987046
536970112              8.414502              3.845847             31.802476
536970112             14.480685               0.57242             34.411956
536970112              6.265712              2.729189             33.568811
536970112              3.364441              9.768463             28.748624
536970112               6.92256              9.061417              33.54134
536970112             13.928075              6.151399             26.031671
536970112              6.728724              5.244179              33.45894
536970112              2.713495              8.736449             31.186115
536970112              7.524762              2.961647             26.862635
536970112              9.953609              5.298956             32.702675
536970112             16.089723              9.020477              28.11153
300
Atoms. Timestep: 10
536970144      14.7771206783013                     5      35.7174230656966
536970144      14.7771206783013                     5      38.1774230656966
536970144      14.7771206783013                     5      40.6374230656966
536970144      14.7771206783013                     5      43.0974230656966
536970144      14.7771206783013                     5      45.5574230656966
536970144      14.7771206783013                     5      48.0174230656966
536970144      14.7771206783013                     5     0.477423065696563
536970144      16.9185836783013                     5      34.4874230656966
536970144      16.9185836783013                     5      36.9474230656966
536970144      16.9185836783013                     5      39.4074230656966
536970144      16.9185836783013                     5      41.8674230656966
536970144      16.9185836783013                     5      44.3274230656966
536970144      16.9185836783013                     5      46.7874230656966
536970144      16.9185836783013                     5      49.2474230656966
536970144      16.2048766783013                     5      35.7174230656966
536970144      16.2048766783013                     5      38.1774230656966
536970144      16.2048766783013                     5      40.6374230656966
536970144      16.2048766783013                     5      43.0974230656966
536970144      16.2048766783013                     5      45.5574230656966
536970144      16.2048766783013                     5      48.0174230656966
536970144      16.2048766783013                     5     0.477423065696563
536970144      1.21463867830129                     5      34.4874230656966
536970144      1.21463867830129                     5      36.9474230656966
536970144      1.21463867830129                     5      39.4074230656966
536970144      1.21463867830129                     5      41.8674230656966
536970144      1.21463867830129                     5      44.3274230656966
536970144      1.21463867830129                     5      46.7874230656966
536970144      1.21463867830129                     5      49.2474230656966
536970144      1.92834567830129                     5      35.7174230656966
536970144      1.92834567830129                     5      38.1774230656966
536970112      1.92834567830129                     5      40.6374230656966
536970112      1.92834567830129                     5      43.0974230656966
536970112      1.92834567830129                     5      45.5574230656966
536970112      1.92834567830129                     5      48.0174230656966
536970112      1.92834567830129                     5     0.477423065696563
536970112      4.06980867830129                     5      34.4874230656966
536970112      4.06980867830129                     5      36.9474230656966
536970112      4.06980867830129                     5      39.4074230656966
536970112      4.06980867830129                     5      41.8674230656966
536970112      4.06980867830129                     5      44.3274230656966
536970112      4.06980867830129                     5      46.7874230656966
536970112      4.06980867830129                     5      49.2474230656966
536970112      3.35610167830129                     5      35.7174230656966
536970112      3.35610167830129                     5      38.1774230656966
536970112      3.35610167830129                     5      40.6374230656966
536970112      3.35610167830129                     5      43.0974230656966
536970112      3.35610167830129                     5      45.5574230656966
536970112      3.35610167830129                     5      48.0174230656966
536970112      3.35610167830129                     5     0.477423065696563
536970112      5.49756367830129                     5      34.4874230656966
536970112      5.49756367830129                     5      36.9474230656966
536970112      5.49756367830129                     5      39.4074230656966
536970112      5.49756367830129                     5      41.8674230656966
536970112      5.49756367830129                     5      44.3274230656966
536970112      5.49756367830129                     5      46.7874230656966
536970112      5.49756367830129                     5      49.2474230656966
536970112      6.21127067830129                     5      35.7174230656966
536970112      6.21127067830129                     5      38.1774230656966
536970112      6.21127067830129                     5      40.6374230656966
536970112      6.21127067830129                     5      43.0974230656966
536970112      6.21127067830129                     5      45.5574230656966
536970112      6.21127067830129                     5      48.0174230656966
536970112      6.21127067830129                     5     0.477423065696563
536970112      8.35273367830129                     5      34.4874230656966
536970112      8.35273367830129                     5      36.9474230656966
536970112      8.35273367830129                     5      39.4074230656966
536970112      8.35273367830129                     5      41.8674230656966
536970112      8.35273367830129                     5      44.3274230656966
536970112      8.35273367830129                     5      46.7874230656966
536970112      8.35273367830129                     5      49.2474230656966
536970112      7.63902667830129                     5      35.7174230656966
536970112      7.63902667830129                     5      38.1774230656966
536970112      7.63902667830129                     5      40.6374230656966
536970112      7.63902667830129                     5      43.0974230656966
536970112      7.63902667830129                     5      45.5574230656966
536970112      7.63902667830129                     5      48.0174230656966
536970112      7.63902667830129                     5     0.477423065696563
536970112      9.78048867830129                     5      34.4874230656966
536970112      9.78048867830129                     5      36.9474230656966
536970112      9.78048867830129                     5      39.4074230656966
536970112      9.78048867830129                     5      41.8674230656966
536970112      9.78048867830129                     5      44.3274230656966
536970112      9.78048867830129                     5      46.7874230656966
536970112      9.78048867830129                     5      49.2474230656966
536970112      10.4941956783013                     5      35.7174230656966
536970112      10.4941956783013                     5      38.1774230656966
536970112      10.4941956783013                     5      40.6374230656966
536970112      10.4941956783013                     5      43.0974230656966
536970112      10.4941956783013                     5      45.5574230656966
536970112      10.4941956783013                     5      48.0174230656966
536970112      10.4941956783013                     5     0.477423065696563
536970112      12.6356586783013                     5      34.4874230656966
536970112      12.6356586783013                     5      36.9474230656966
536970112      12.6356586783013                     5      39.4074230656966