search structure

300 atoms
2  atom types

0   17.131700 xlo xhi
0   10.000000 ylo yhi
0   50.000000 zlo zhi

Atoms

1 2 14.777263 5.000000 35.718456
2 2 14.777263 5.000000 38.178456
3 2 14.777263 5.000000 40.638456
4 2 14.777263 5.000000 43.098456
5 2 14.777263 5.000000 45.558456
6 2 14.777263 5.000000 48.018456
7 2 14.777263 5.000000 50.478456
8 2 16.918726 5.000000 34.488456
9 2 16.918726 5.000000 36.948456
10 2 16.918726 5.000000 39.408456
11 2 16.918726 5.000000 41.868456
12 2 16.918726 5.000000 44.328456
13 2 16.918726 5.000000 46.788456
14 2 16.918726 5.000000 49.248456
15 2 16.205019 5.000000 35.718456
16 2 16.205019 5.000000 38.178456
17 2 16.205019 5.000000 40.638456
18 2 16.205019 5.000000 43.098456
19 2 16.205019 5.000000 45.558456
20 2 16.205019 5.000000 48.018456
21 2 16.205019 5.000000 50.478456
22 2 1.214781 5.000000 34.488456
23 2 1.214781 5.000000 36.948456
24 2 1.214781 5.000000 39.408456
25 2 1.214781 5.000000 41.868456
26 2 1.214781 5.000000 44.328456
27 2 1.214781 5.000000 46.788456
28 2 1.214781 5.000000 49.248456
29 2 1.928488 5.000000 35.718456
30 2 1.928488 5.000000 38.178456
31 1 1.928488 5.000000 40.638456
32 1 1.928488 5.000000 43.098456
33 1 1.928488 5.000000 45.558456
34 1 1.928488 5.000000 48.018456
35 1 1.928488 5.000000 50.478456
36 1 4.069951 5.000000 34.488456
37 1 4.069951 5.000000 36.948456
38 1 4.069951 5.000000 39.408456
39 1 4.069951 5.000000 41.868456
40 1 4.069951 5.000000 44.328456
41 1 4.069951 5.000000 46.788456
42 1 4.069951 5.000000 49.248456
43 1 3.356244 5.000000 35.718456
44 1 3.356244 5.000000 38.178456
45 1 3.356244 5.000000 40.638456
46 1 3.356244 5.000000 43.098456
47 1 3.356244 5.000000 45.558456
48 1 3.356244 5.000000 48.018456
49 1 3.356244 5.000000 50.478456
50 1 5.497706 5.000000 34.488456
51 1 5.497706 5.000000 36.948456
52 1 5.497706 5.000000 39.408456
53 1 5.497706 5.000000 41.868456
54 1 5.497706 5.000000 44.328456
55 1 5.497706 5.000000 46.788456
56 1 5.497706 5.000000 49.248456
57 1 6.211413 5.000000 35.718456
58 1 6.211413 5.000000 38.178456
59 1 6.211413 5.000000 40.638456
60 1 6.211413 5.000000 43.098456
61 1 6.211413 5.000000 45.558456
62 1 6.211413 5.000000 48.018456
63 1 6.211413 5.000000 50.478456
64 1 8.352876 5.000000 34.488456
65 1 8.352876 5.000000 36.948456
66 1 8.352876 5.000000 39.408456
67 1 8.352876 5.000000 41.868456
68 1 8.352876 5.000000 44.328456
69 1 8.352876 5.000000 46.788456
70 1 8.352876 5.000000 49.248456
71 1 7.639169 5.000000 35.718456
72 1 7.639169 5.000000 38.178456
73 1 7.639169 5.000000 40.638456
74 1 7.639169 5.000000 43.098456
75 1 7.639169 5.000000 45.558456
76 1 7.639169 5.000000 48.018456
77 1 7.639169 5.000000 50.478456
78 1 9.780631 5.000000 34.488456
79 1 9.780631 5.000000 36.948456
80 1 9.780631 5.000000 39.408456
81 1 9.780631 5.000000 41.868456
82 1 9.780631 5.000000 44.328456
83 1 9.780631 5.000000 46.788456
84 1 9.780631 5.000000 49.248456
85 1 10.494338 5.000000 35.718456
86 1 10.494338 5.000000 38.178456
87 1 10.494338 5.000000 40.638456
88 1 10.494338 5.000000 43.098456
89 1 10.494338 5.000000 45.558456
90 1 10.494338 5.000000 48.018456
91 1 10.494338 5.000000 50.478456
92 1 12.635801 5.000000 34.488456
93 1 12.635801 5.000000 36.948456
94 1 12.635801 5.000000 39.408456
95 1 12.635801 5.000000 41.868456
96 1 12.635801 5.000000 44.328456
97 1 12.635801 5.000000 46.788456
98 1 12.635801 5.000000 49.248456
99 1 11.922094 5.000000 35.718456
100 1 11.922094 5.000000 38.178456
101 1 11.922094 5.000000 40.638456
102 1 11.922094 5.000000 43.098456
103 1 11.922094 5.000000 45.558456
104 1 11.922094 5.000000 48.018456
105 1 11.922094 5.000000 50.478456
106 1 14.063556 5.000000 34.488456
107 1 14.063556 5.000000 36.948456
108 1 14.063556 5.000000 39.408456
109 1 14.063556 5.000000 41.868456
110 1 14.063556 5.000000 44.328456
111 1 14.063556 5.000000 46.788456
112 1 14.063556 5.000000 49.248456
113 2 14.207120 5.000000 51.465956
114 2 16.774991 5.000000 51.465956
115 2 1.360572 5.000000 51.466956
116 2 3.926216 5.000000 51.465956
117 2 5.643497 5.000000 51.466956
118 2 8.209141 5.000000 51.465956
119 2 9.926422 5.000000 51.466956
120 2 12.492066 5.000000 51.465956
121 1 -0.039917 5.000000 8.565500
122 1 -0.039917 5.000000 12.826500
123 1 -0.039917 5.000000 17.087500
124 1 -0.039917 5.000000 21.348000
125 1 -0.039917 5.000000 9.986000
126 1 -0.039917 5.000000 14.246500
127 1 -0.039917 5.000000 18.507500
128 1 -0.039917 5.000000 22.768500
129 1 15.868066 5.000000 10.696000
130 1 15.868066 5.000000 14.957000
131 1 15.868066 5.000000 19.217500
132 1 15.868066 5.000000 23.478500
133 1 15.868066 5.000000 7.855500
134 1 15.868066 5.000000 12.116500
135 1 15.868066 5.000000 16.377000
136 1 15.868066 5.000000 20.638000
137 1 14.644348 5.000000 8.565500
138 1 14.644348 5.000000 12.826500
139 1 14.644348 5.000000 17.087500
140 1 14.644348 5.000000 21.348000
141 1 13.420631 5.000000 10.696000
142 1 13.420631 5.000000 14.957000
143 1 13.420631 5.000000 19.217500
144 1 13.420631 5.000000 23.478500
145 1 14.644348 5.000000 9.986000
146 1 14.644348 5.000000 14.246500
147 1 14.644348 5.000000 18.507500
148 1 14.644348 5.000000 22.768500
149 1 13.420631 5.000000 7.855500
150 1 13.420631 5.000000 12.116500
151 1 13.420631 5.000000 16.377000
152 1 13.420631 5.000000 20.638000
153 1 12.197085 5.000000 8.565500
154 1 12.197085 5.000000 12.826500
155 1 12.197085 5.000000 17.087500
156 1 12.197085 5.000000 21.348000
157 1 10.973368 5.000000 10.696000
158 1 10.973368 5.000000 14.957000
159 1 10.973368 5.000000 19.217500
160 1 10.973368 5.000000 23.478500
161 1 12.197085 5.000000 9.986000
162 1 12.197085 5.000000 14.246500
163 1 12.197085 5.000000 18.507500
164 1 12.197085 5.000000 22.768500
165 1 10.973368 5.000000 7.855500
166 1 10.973368 5.000000 12.116500
167 1 10.973368 5.000000 16.377000
168 1 10.973368 5.000000 20.638000
169 1 9.749650 5.000000 8.565500
170 1 9.749650 5.000000 12.826500
171 1 9.749650 5.000000 17.087500
172 1 9.749650 5.000000 21.348000
173 1 8.525933 5.000000 10.696000
174 1 8.525933 5.000000 14.957000
175 1 8.525933 5.000000 19.217500
176 1 8.525933 5.000000 23.478500
177 1 9.749650 5.000000 9.986000
178 1 9.749650 5.000000 14.246500
179 1 9.749650 5.000000 18.507500
180 1 9.749650 5.000000 22.768500
181 1 8.525933 5.000000 7.855500
182 1 8.525933 5.000000 12.116500
183 1 8.525933 5.000000 16.377000
184 1 8.525933 5.000000 20.638000
185 1 7.302216 5.000000 8.565500
186 1 7.302216 5.000000 12.826500
187 1 7.302216 5.000000 17.087500
188 1 7.302216 5.000000 21.348000
189 1 6.078498 5.000000 10.696000
190 1 6.078498 5.000000 14.957000
191 1 6.078498 5.000000 19.217500
192 1 6.078498 5.000000 23.478500
193 1 7.302216 5.000000 9.986000
194 1 7.302216 5.000000 14.246500
195 1 7.302216 5.000000 18.507500
196 1 7.302216 5.000000 22.768500
197 1 6.078498 5.000000 7.855500
198 1 6.078498 5.000000 12.116500
199 1 6.078498 5.000000 16.377000
200 1 6.078498 5.000000 20.638000
201 1 4.854781 5.000000 8.565500
202 1 4.854781 5.000000 12.826500
203 1 4.854781 5.000000 17.087500
204 1 4.854781 5.000000 21.348000
205 1 3.631235 5.000000 10.696000
206 1 3.631235 5.000000 14.957000
207 1 3.631235 5.000000 19.217500
208 1 3.631235 5.000000 23.478500
209 1 4.854781 5.000000 9.986000
210 1 4.854781 5.000000 14.246500
211 1 4.854781 5.000000 18.507500
212 1 4.854781 5.000000 22.768500
213 1 3.631235 5.000000 7.855500
214 1 3.631235 5.000000 12.116500
215 1 3.631235 5.000000 16.377000
216 1 3.631235 5.000000 20.638000
217 1 2.407518 5.000000 8.565500
218 1 2.407518 5.000000 12.826500
219 1 2.407518 5.000000 17.087500
220 1 2.407518 5.000000 21.348000
221 1 1.183800 5.000000 10.696000
222 1 1.183800 5.000000 14.957000
223 1 1.183800 5.000000 19.217500
224 1 1.183800 5.000000 23.478500
225 1 2.407518 5.000000 9.986000
226 1 2.407518 5.000000 14.246500
227 1 2.407518 5.000000 18.507500
228 1 2.407518 5.000000 22.768500
229 1 1.183800 5.000000 7.855500
230 1 1.183800 5.000000 12.116500
231 1 1.183800 5.000000 16.377000
232 1 1.183800 5.000000 20.638000
233 2 15.865667 5.000000 6.715500
234 2 13.423030 5.000000 6.715500
235 2 10.975766 5.000000 6.715500
236 2 8.528332 5.000000 6.715500
237 2 6.080897 5.000000 6.715500
238 2 3.633634 5.000000 6.715500
239 2 1.181402 5.000000 6.715500
240 2 16.360213 2.000052 27.459934
241 2 15.165295 1.711798 23.500000
242 2 13.659177 2.443384 26.276679
243 2 13.354426 3.975601 25.996170
244 2 15.514482 0.876967 27.047663
245 2 15.640311 1.838026 30.209944
246 2 8.751028 5.192098 23.500000
247 2 15.550627 3.843874 23.654850
248 2 12.046782 8.150846 26.469952
249 2 5.212088 8.976222 27.729144
250 2 2.037338 4.981344 28.052037
251 2 4.295742 9.311527 25.882632
252 2 0.441627 8.149944 30.080162
253 2 14.223624 3.410400 29.883178
254 2 14.298239 3.729016 29.232108
255 2 6.241714 6.630905 24.394273
256 2 10.782482 6.861835 31.049110
257 2 6.229195 8.155850 29.143301
258 2 3.352944 5.095124 30.933060
259 2 1.979021 4.380336 30.539217
260 2 3.412045 4.475976 33.651430
261 2 4.770405 0.639082 30.015547
262 2 15.747050 2.382888 30.351057
263 2 10.146152 1.130358 34.411956
264 2 6.184567 0.509622 31.921779
265 2 10.019945 6.011740 32.628375
266 2 11.437510 6.282827 30.312912
267 2 9.087479 7.553730 29.763518
268 1 15.093917 7.456152 25.339943
269 1 12.268389 4.047361 23.500000
270 1 16.365579 3.417160 24.984989
271 1 12.698249 3.969813 23.500000
272 1 7.053195 7.512175 24.252187
273 1 11.071777 2.751589 23.500000
274 1 2.853648 9.325445 27.654712
275 1 16.935424 9.847387 25.854268
276 1 2.324086 5.178208 23.500000
277 1 14.115079 5.607711 25.694790
278 1 0.857648 8.220076 23.500000
279 1 16.896372 6.786897 26.779258
280 1 16.733818 6.873899 29.293832
281 1 17.072739 4.140530 30.272816
282 1 1.682890 9.074979 28.246956
283 1 4.661217 8.949487 31.182531
284 1 8.184256 0.092610 29.822884
285 1 15.099973 7.262006 27.301487
286 1 16.873773 0.475954 33.324861
287 1 9.482909 1.172979 24.629523
288 1 2.897811 2.273178 25.353501
289 1 8.402333 3.092042 23.987046
290 1 8.414502 3.845847 31.802476
291 1 14.480685 0.572420 34.411956
292 1 6.265712 2.729189 33.568811
293 1 3.364441 9.768463 28.748624
294 1 6.922560 9.061417 33.541340
295 1 13.928075 6.151399 26.031671
296 1 6.728724 5.244179 33.458940
297 1 2.713495 8.736449 31.186115
298 1 7.524762 2.961647 26.862635
299 1 9.953609 5.298956 32.702675
300 1 16.089723 9.020477 28.111530
