300
Atoms. Timestep: 0
291677088              1.909488                     5             36.491536
291677088              1.909488                     5             38.951536
291677088              1.909488                     5             41.411536
291677088              1.909488                     5             43.871536
291677088              1.909488                     5             46.331536
291677088              1.909488                     5             48.791536
291677088              1.909488                     5              1.251536
291677088               4.05095                     5             35.261536
291677088               4.05095                     5             37.721536
291677088               4.05095                     5             40.181536
291677088               4.05095                     5             42.641536
291677088               4.05095                     5             45.101536
291677088               4.05095                     5             47.561536
291677088               4.05095                     5    0.0215359999999976
291677088              3.337243                     5             36.491536
291677088              3.337243                     5             38.951536
291677088              3.337243                     5             41.411536
291677088              3.337243                     5             43.871536
291677088              3.337243                     5             46.331536
291677088              3.337243                     5             48.791536
291677088              3.337243                     5              1.251536
291677088              5.478706                     5             35.261536
291677088              5.478706                     5             37.721536
291677088              5.478706                     5             40.181536
291677088              5.478706                     5             42.641536
291677088              5.478706                     5             45.101536
291677088              5.478706                     5             47.561536
291677088              5.478706                     5    0.0215359999999976
291677088              6.192413                     5             36.491536
291677088              6.192413                     5             38.951536
291677056              6.192413                     5             41.411536
291677056              6.192413                     5             43.871536
291677056              6.192413                     5             46.331536
291677056              6.192413                     5             48.791536
291677056              6.192413                     5              1.251536
291677056              8.333875                     5             35.261536
291677056              8.333875                     5             37.721536
291677056              8.333875                     5             40.181536
291677056              8.333875                     5             42.641536
291677056              8.333875                     5             45.101536
291677056              8.333875                     5             47.561536
291677056              8.333875                     5    0.0215359999999976
291677056              7.620168                     5             36.491536
291677056              7.620168                     5             38.951536
291677056              7.620168                     5             41.411536
291677056              7.620168                     5             43.871536
291677056              7.620168                     5             46.331536
291677056              7.620168                     5             48.791536
291677056              7.620168                     5              1.251536
291677056              9.761631                     5             35.261536
291677056              9.761631                     5             37.721536
291677056              9.761631                     5             40.181536
291677056              9.761631                     5             42.641536
291677056              9.761631                     5             45.101536
291677056              9.761631                     5             47.561536
291677056              9.761631                     5    0.0215359999999976
291677056             10.475338                     5             36.491536
291677056             10.475338                     5             38.951536
291677056             10.475338                     5             41.411536
291677056             10.475338                     5             43.871536
291677056             10.475338                     5             46.331536
291677056             10.475338                     5             48.791536
291677056             10.475338                     5              1.251536
291677056               12.6168                     5             35.261536
291677056               12.6168                     5             37.721536
291677056               12.6168                     5             40.181536
291677056               12.6168                     5             42.641536
291677056               12.6168                     5             45.101536
291677056               12.6168                     5             47.561536
291677056               12.6168                     5    0.0215359999999976
291677056             11.903093                     5             36.491536
291677056             11.903093                     5             38.951536
291677056             11.903093                     5             41.411536
291677056             11.903093                     5             43.871536
291677056             11.903093                     5             46.331536
291677056             11.903093                     5             48.791536
291677056             11.903093                     5              1.251536
291677056             14.044556                     5             35.261536
291677056             14.044556                     5             37.721536
291677056             14.044556                     5             40.181536
291677056             14.044556                     5             42.641536
291677056             14.044556                     5             45.101536
291677056             14.044556                     5             47.561536
291677056             14.044556                     5    0.0215359999999976
291677056             14.758263                     5             36.491536
291677056             14.758263                     5             38.951536
291677056             14.758263                     5             41.411536
291677056             14.758263                     5             43.871536
291677056             14.758263                     5             46.331536
291677056             14.758263                     5             48.791536
291677056             14.758263                     5              1.251536
291677056             16.899725                     5             35.261536
291677056             16.899725                     5             37.721536
291677056             16.899725                     5             40.181536
291677056             16.899725                     5             42.641536
291677056             16.899725                     5             45.101536
291677056             16.899725                     5             47.561536
291677056             16.899725                     5    0.0215359999999976
291677056             16.186018                     5             36.491536
291677056             16.186018                     5             38.951536
291677056             16.186018                     5             41.411536
291677056             16.186018                     5             43.871536
291677056             16.186018                     5             46.331536
291677056             16.186018                     5             48.791536
291677056             16.186018                     5              1.251536
291677056              1.195781                     5             35.261536
291677056              1.195781                     5             37.721536
291677056              1.195781                     5             40.181536
291677056              1.195781                     5             42.641536
291677056              1.195781                     5             45.101536
291677056              1.195781                     5             47.561536
291677056              1.195781                     5    0.0215359999999976
291677088              1.339345                     5              2.239036
291677088              3.907215                     5              2.239036
291677088              5.624497                     5              2.240036
291677088               8.19014                     5              2.239036
291677088              9.907422                     5              2.240036
291677088             12.473065                     5              2.239036
291677088             14.190347                     5              2.240036
291677088              16.75599                     5              2.239036
291677056             17.091783                     5                8.5655
291677056             17.091783                     5               12.8265
291677056             17.091783                     5               17.0875
291677056             17.091783                     5                21.348
291677056             17.091783                     5                 9.986
291677056             17.091783                     5               14.2465
291677056             17.091783                     5               18.5075
291677056             17.091783                     5               22.7685
291677056             15.868066                     5                10.696
291677056             15.868066                     5                14.957
291677056             15.868066                     5               19.2175
291677056             15.868066                     5               23.4785
291677056             15.868066                     5                7.8555
291677056             15.868066                     5               12.1165
291677056             15.868066                     5                16.377
291677056             15.868066                     5                20.638
291677056             14.644348                     5                8.5655
291677056             14.644348                     5               12.8265
291677056             14.644348                     5               17.0875
291677056             14.644348                     5                21.348
291677056             13.420631                     5                10.696
291677056             13.420631                     5                14.957
291677056             13.420631                     5               19.2175
291677056             13.420631                     5               23.4785
291677056             14.644348                     5                 9.986
291677056             14.644348                     5               14.2465
291677056             14.644348                     5               18.5075
291677056             14.644348                     5               22.7685
291677056             13.420631                     5                7.8555
291677056             13.420631                     5               12.1165
291677056             13.420631                     5                16.377
291677056             13.420631                     5                20.638
291677056             12.197085                     5                8.5655
291677056             12.197085                     5               12.8265
291677056             12.197085                     5               17.0875
291677056             12.197085                     5                21.348
291677056             10.973368                     5                10.696
291677056             10.973368                     5                14.957
291677056             10.973368                     5               19.2175
291677056             10.973368                     5               23.4785
291677056             12.197085                     5                 9.986
291677056             12.197085                     5               14.2465
291677056             12.197085                     5               18.5075
291677056             12.197085                     5               22.7685
291677056             10.973368                     5                7.8555
291677056             10.973368                     5               12.1165
291677056             10.973368                     5                16.377
291677056             10.973368                     5                20.638
291677056               9.74965                     5                8.5655
291677056               9.74965                     5               12.8265
291677056               9.74965                     5               17.0875
291677056               9.74965                     5                21.348
291677056              8.525933                     5                10.696
291677056              8.525933                     5                14.957
291677056              8.525933                     5               19.2175
291677056              8.525933                     5               23.4785
291677056               9.74965                     5                 9.986
291677056               9.74965                     5               14.2465
291677056               9.74965                     5               18.5075
291677056               9.74965                     5               22.7685
291677056              8.525933                     5                7.8555
291677056              8.525933                     5               12.1165
291677056              8.525933                     5                16.377
291677056              8.525933                     5                20.638
291677056              7.302216                     5                8.5655
291677056              7.302216                     5               12.8265
291677056              7.302216                     5               17.0875
291677056              7.302216                     5                21.348
291677056              6.078498                     5                10.696
291677056              6.078498                     5                14.957
291677056              6.078498                     5               19.2175
291677056              6.078498                     5               23.4785
291677056              7.302216                     5                 9.986
291677056              7.302216                     5               14.2465
291677056              7.302216                     5               18.5075
291677056              7.302216                     5               22.7685
291677056              6.078498                     5                7.8555
291677056              6.078498                     5               12.1165
291677056              6.078498                     5                16.377
291677056              6.078498                     5                20.638
291677056              4.854781                     5                8.5655
291677056              4.854781                     5               12.8265
291677056              4.854781                     5               17.0875
291677056              4.854781                     5                21.348
291677056              3.631235                     5                10.696
291677056              3.631235                     5                14.957
291677056              3.631235                     5               19.2175
291677056              3.631235                     5               23.4785
291677056              4.854781                     5                 9.986
291677056              4.854781                     5               14.2465
291677056              4.854781                     5               18.5075
291677056              4.854781                     5               22.7685
291677056              3.631235                     5                7.8555
291677056              3.631235                     5               12.1165
291677056              3.631235                     5                16.377
291677056              3.631235                     5                20.638
291677056              2.407518                     5                8.5655
291677056              2.407518                     5               12.8265
291677056              2.407518                     5               17.0875
291677056              2.407518                     5                21.348
291677056                1.1838                     5                10.696
291677056                1.1838                     5                14.957
291677056                1.1838                     5               19.2175
291677056                1.1838                     5               23.4785
291677056              2.407518                     5                 9.986
291677056              2.407518                     5               14.2465
291677056              2.407518                     5               18.5075
291677056              2.407518                     5               22.7685
291677056                1.1838                     5                7.8555
291677056                1.1838                     5               12.1165
291677056                1.1838                     5                16.377
291677056                1.1838                     5                20.638
291677088             15.865667                     5                6.7155
291677088              13.42303                     5                6.7155
291677088             10.975766                     5                6.7155
291677088              8.528332                     5                6.7155
291677088              6.080897                     5                6.7155
291677088              3.633634                     5                6.7155
291677088              1.181402                     5                6.7155
291677088              3.325954              1.845771             26.612285
291677088               8.69618              2.986827             24.172285
291677088              3.908736               4.30774             25.707188
291677088              6.686952              4.680515             23.869165
291677088             11.801893              6.181109             26.502644
291677088             10.342919              7.546009             24.943869
291677088             13.948104              7.645643             25.608094
291677088              8.987683              8.276526             24.746284
291677088             14.568019               9.67929             26.651519
291677088              0.562314              0.151308             29.567041
291677088               0.64146              1.883819             27.312282
291677088              3.146807              2.928212             28.321374
291677088              0.254483              8.507315             28.539769
291677088             11.655363              0.812133             27.508269
291677088              9.003395              2.591703             27.542508
291677088              6.921736              5.389734             29.401477
291677088              8.486441              5.396238             27.516872
291677088              15.61398               7.68578             27.913135
291677088              4.306706               1.36487             33.710378
291677088              1.986049              1.954589              34.37167
291677088              1.114507              2.444963             33.198952
291677088              8.347659              2.852615             34.592947
291677088              4.463995              3.440881             31.079528
291677088             13.656752              1.835526             29.859768
291677088              14.82199              3.948349             30.205097
291677088             15.576394              4.080131             31.888856
291677088             15.003479              6.144945             33.105378
291677088              9.725771              7.261798              31.33586
291677056              3.975924              1.877139             24.000354
291677056              5.136603              1.929424             24.368321
291677056              3.917756              5.483853             24.290869
291677056              3.067054              5.805237             24.935088
291677056              2.352632              6.535282             23.509631
291677056              9.195036              0.622721             23.944165
291677056              7.759752              0.981129             23.778521
291677056              7.541042              2.303121              26.20875
291677056              8.650296               3.92222             24.844428
291677056             16.084438              4.618626             24.313256
291677056              7.341977              9.107205             26.738019
291677056              1.810247              0.863736             29.864484
291677056              3.853063              4.440506             30.100897
291677056              0.438761              7.320889             27.936362
291677056              2.686677              7.519812             27.491759
291677056              5.075339               9.79353             27.464001
291677056              10.61253               2.26188             29.014517
291677056             10.378592              5.742998             29.932735
291677056              7.698653              5.780588             28.938096
291677056                11.761              5.833878             28.950175
291677056              8.116848              6.584619             27.747273
291677056              6.728436               9.43316             29.391265
291677056              4.234096              0.166157             31.989965
291677056              2.628098              1.453595             33.877367
291677056              5.575315              4.271259             34.007737
291677056              2.969895              6.411656             32.058239
291677056              6.940461              9.859036             30.650169
291677056             16.520469              3.006195             34.385561
291677056             16.564563              4.707472              33.82787
291677056             10.796549              6.880718             32.283808
291677056             10.970642              7.735981             32.318672
291677056             16.531577              9.752849              32.06567
291677056              8.637964              9.965823             34.680201
300
Atoms. Timestep: 10
291677088      1.90975893062265                     5      36.4904385989188
291677088      1.90975893062265                     5      38.9504385989188
291677088      1.90975893062265                     5      41.4104385989188
291677088      1.90975893062265                     5      43.8704385989188
291677088      1.90975893062265                     5      46.3304385989188
291677088      1.90975893062265                     5      48.7904385989188
291677088      1.90975893062265                     5      1.25043859891882
291677088      4.05122093062265                     5      35.2604385989188
291677088      4.05122093062265                     5      37.7204385989188
291677088      4.05122093062265                     5      40.1804385989188
291677088      4.05122093062265                     5      42.6404385989188
291677088      4.05122093062265                     5      45.1004385989188
291677088      4.05122093062265                     5      47.5604385989188
291677088      4.05122093062265                     5    0.0204385989188124
291677088      3.33751393062265                     5      36.4904385989188
291677088      3.33751393062265                     5      38.9504385989188
291677088      3.33751393062265                     5      41.4104385989188
291677088      3.33751393062265                     5      43.8704385989188
291677088      3.33751393062265                     5      46.3304385989188
291677088      3.33751393062265                     5      48.7904385989188
291677088      3.33751393062265                     5      1.25043859891882
291677088      5.47897693062265                     5      35.2604385989188
291677088      5.47897693062265                     5      37.7204385989188
291677088      5.47897693062265                     5      40.1804385989188
291677088      5.47897693062265                     5      42.6404385989188
291677088      5.47897693062265                     5      45.1004385989188
291677088      5.47897693062265                     5      47.5604385989188
291677088      5.47897693062265                     5    0.0204385989188124
291677088      6.19268393062265                     5      36.4904385989188
291677088      6.19268393062265                     5      38.9504385989188
291677056      6.19268393062265                     5      41.4104385989188
291677056      6.19268393062265                     5      43.8704385989188
291677056      6.19268393062265                     5      46.3304385989188
291677056      6.19268393062265                     5      48.7904385989188
291677056      6.19268393062265                     5      1.25043859891882
291677056      8.33414593062265                     5      35.2604385989188
291677056      8.33414593062265                     5      37.7204385989188
291677056      8.33414593062265                     5      40.1804385989188
291677056      8.33414593062265                     5      42.6404385989188
291677056      8.33414593062265                     5      45.1004385989188
291677056      8.33414593062265                     5      47.5604385989188
291677056      8.33414593062265                     5    0.0204385989188124
291677056      7.62043893062265                     5      36.4904385989188
291677056      7.62043893062265                     5      38.9504385989188
291677056      7.62043893062265                     5      41.4104385989188
291677056      7.62043893062265                     5      43.8704385989188
291677056      7.62043893062265                     5      46.3304385989188
291677056      7.62043893062265                     5      48.7904385989188
291677056      7.62043893062265                     5      1.25043859891882
291677056      9.76190193062265                     5      35.2604385989188
291677056      9.76190193062265                     5      37.7204385989188
291677056      9.76190193062265                     5      40.1804385989188
291677056      9.76190193062265                     5      42.6404385989188
291677056      9.76190193062265                     5      45.1004385989188
291677056      9.76190193062265                     5      47.5604385989188
291677056      9.76190193062265                     5    0.0204385989188124
291677056      10.4756089306227                     5      36.4904385989188
291677056      10.4756089306227                     5      38.9504385989188
291677056      10.4756089306227                     5      41.4104385989188
291677056      10.4756089306227                     5      43.8704385989188
291677056      10.4756089306227                     5      46.3304385989188
291677056      10.4756089306227                     5      48.7904385989188
291677056      10.4756089306227                     5      1.25043859891882
291677056      12.6170709306227                     5      35.2604385989188
291677056      12.6170709306227                     5      37.7204385989188
291677056      12.6170709306227                     5      40.1804385989188
291677056      12.6170709306227                     5      42.6404385989188
291677056      12.6170709306227                     5      45.1004385989188
291677056      12.6170709306227                     5      47.5604385989188
291677056      12.6170709306227                     5    0.0204385989188124
291677056      11.9033639306227                     5      36.4904385989188
291677056      11.9033639306227                     5      38.9504385989188
291677056      11.9033639306227                     5      41.4104385989188
291677056      11.9033639306227                     5      43.8704385989188
291677056      11.9033639306227                     5      46.3304385989188
291677056      11.9033639306227                     5      48.7904385989188
291677056      11.9033639306227                     5      1.25043859891882
291677056      14.0448269306227                     5      35.2604385989188
291677056      14.0448269306227                     5      37.7204385989188
291677056      14.0448269306227                     5      40.1804385989188
291677056      14.0448269306227                     5      42.6404385989188
291677056      14.0448269306227                     5      45.1004385989188
291677056      14.0448269306227                     5      47.5604385989188
291677056      14.0448269306227                     5    0.0204385989188124
291677056      14.7585339306227                     5      36.4904385989188
291677056      14.7585339306227                     5      38.9504385989188
291677056      14.7585339306227                     5      41.4104385989188
291677056      14.7585339306227                     5      43.8704385989188
291677056      14.7585339306227                     5      46.3304385989188
291677056      14.7585339306227                     5      48.7904385989188
291677056      14.7585339306227                     5      1.25043859891882
291677056      16.8999959306227                     5      35.2604385989188
291677056      16.8999959306227                     5      37.7204385989188
291677056      16.8999959306227                     5      40.1804385989188