LAMMPS (30 Aug 2012)
units		metal
boundary	p p p
atom_style	atomic
read_data	struct.lammps
  orthogonal box = (0 0 0) to (17.1317 10 50)
  1 by 1 by 1 MPI processor grid
  300 atoms

pair_style      airebo 3.0
pair_coeff      * * CH.airebo C H

mass	1	12.0
mass	2	1.0

group		fixPosH id <> 1 120
120 atoms in group fixPosH
group		fixPosL id <> 121 239
119 atoms in group fixPosL
group		optPos  id <> 240 1000
61 atoms in group optPos
fix             0       fixPosH setforce NULL 0.0 NULL
fix             1       fixPosH aveforce 0.0 0.0 0.0
fix		2	fixPosL setforce 0.0 0.0 0.0
fix 		3	optPos	setforce NULL 0.0 NULL

neighbor        0.2 bin
neigh_modify	every 1 delay 0 check yes

timestep	0.002
thermo 		1
thermo_style    custom step  pe etotal lx ly lz 

dump		1 all xyz 10000000 dump.atom
dump_modify	1 format "%d  %20.15g  %20.15g  %20.15g" 
#fix 		8 all box/relax iso 0.0 
min_style	cg
minimize	1.0e-12 1.0e-12 10 10
Memory usage per processor = 3.26795 Mbytes
Step PotEng TotEng Lx Ly Lz 
       0   -1030.5569   -1030.5569      17.1317           10           50 
       1   -1093.5871   -1093.5871      17.1317           10           50 
       2   -1136.8203   -1136.8203      17.1317           10           50 
       3   -1160.0946   -1160.0946      17.1317           10           50 
       4   -1171.4464   -1171.4464      17.1317           10           50 
       5   -1175.5704   -1175.5704      17.1317           10           50 
       6   -1180.9043   -1180.9043      17.1317           10           50 
       7   -1185.4103   -1185.4103      17.1317           10           50 
       8   -1188.5339   -1188.5339      17.1317           10           50 
       9   -1190.5742   -1190.5742      17.1317           10           50 
      10   -1193.9183   -1193.9183      17.1317           10           50 
Loop time of 0.377184 on 1 procs for 10 steps with 300 atoms

Minimization stats:
  Stopping criterion = max force evaluations
  Energy initial, next-to-last, final = 
        -1030.55689914       -1190.574247     -1193.91829198
  Force two-norm initial, final = 478.058 16.1217
  Force max component initial, final = 249.773 8.70586
  Final line search alpha, max atom move = 0.010247 0.0892093
  Iterations, force evaluations = 10 10

Pair  time (%) = 0.136687 (36.2389)
Neigh time (%) = 0.236979 (62.8286)
Comm  time (%) = 0.00148821 (0.394558)
Outpt time (%) = 0.000143766 (0.0381157)
Other time (%) = 0.00188541 (0.499866)

Nlocal:    300 ave 300 max 300 min
Histogram: 1 0 0 0 0 0 0 0 0 0
Nghost:    2476 ave 2476 max 2476 min
Histogram: 1 0 0 0 0 0 0 0 0 0
Neighs:    0 ave 0 max 0 min
Histogram: 1 0 0 0 0 0 0 0 0 0
FullNghs:  45036 ave 45036 max 45036 min
Histogram: 1 0 0 0 0 0 0 0 0 0

Total # of neighbors = 45036
Ave neighs/atom = 150.12
Neighbor list builds = 10
Dangerous builds = 10
min_modify line quadratic

clear
