search structure

300 atoms
2  atom types

0   17.131700 xlo xhi
0   10.000000 ylo yhi
0   50.000000 zlo zhi

Atoms

1 2 1.909488 5.000000 36.491536
2 2 1.909488 5.000000 38.951536
3 2 1.909488 5.000000 41.411536
4 2 1.909488 5.000000 43.871536
5 2 1.909488 5.000000 46.331536
6 2 1.909488 5.000000 48.791536
7 2 1.909488 5.000000 51.251536
8 2 4.050950 5.000000 35.261536
9 2 4.050950 5.000000 37.721536
10 2 4.050950 5.000000 40.181536
11 2 4.050950 5.000000 42.641536
12 2 4.050950 5.000000 45.101536
13 2 4.050950 5.000000 47.561536
14 2 4.050950 5.000000 50.021536
15 2 3.337243 5.000000 36.491536
16 2 3.337243 5.000000 38.951536
17 2 3.337243 5.000000 41.411536
18 2 3.337243 5.000000 43.871536
19 2 3.337243 5.000000 46.331536
20 2 3.337243 5.000000 48.791536
21 2 3.337243 5.000000 51.251536
22 2 5.478706 5.000000 35.261536
23 2 5.478706 5.000000 37.721536
24 2 5.478706 5.000000 40.181536
25 2 5.478706 5.000000 42.641536
26 2 5.478706 5.000000 45.101536
27 2 5.478706 5.000000 47.561536
28 2 5.478706 5.000000 50.021536
29 2 6.192413 5.000000 36.491536
30 2 6.192413 5.000000 38.951536
31 1 6.192413 5.000000 41.411536
32 1 6.192413 5.000000 43.871536
33 1 6.192413 5.000000 46.331536
34 1 6.192413 5.000000 48.791536
35 1 6.192413 5.000000 51.251536
36 1 8.333875 5.000000 35.261536
37 1 8.333875 5.000000 37.721536
38 1 8.333875 5.000000 40.181536
39 1 8.333875 5.000000 42.641536
40 1 8.333875 5.000000 45.101536
41 1 8.333875 5.000000 47.561536
42 1 8.333875 5.000000 50.021536
43 1 7.620168 5.000000 36.491536
44 1 7.620168 5.000000 38.951536
45 1 7.620168 5.000000 41.411536
46 1 7.620168 5.000000 43.871536
47 1 7.620168 5.000000 46.331536
48 1 7.620168 5.000000 48.791536
49 1 7.620168 5.000000 51.251536
50 1 9.761631 5.000000 35.261536
51 1 9.761631 5.000000 37.721536
52 1 9.761631 5.000000 40.181536
53 1 9.761631 5.000000 42.641536
54 1 9.761631 5.000000 45.101536
55 1 9.761631 5.000000 47.561536
56 1 9.761631 5.000000 50.021536
57 1 10.475338 5.000000 36.491536
58 1 10.475338 5.000000 38.951536
59 1 10.475338 5.000000 41.411536
60 1 10.475338 5.000000 43.871536
61 1 10.475338 5.000000 46.331536
62 1 10.475338 5.000000 48.791536
63 1 10.475338 5.000000 51.251536
64 1 12.616800 5.000000 35.261536
65 1 12.616800 5.000000 37.721536
66 1 12.616800 5.000000 40.181536
67 1 12.616800 5.000000 42.641536
68 1 12.616800 5.000000 45.101536
69 1 12.616800 5.000000 47.561536
70 1 12.616800 5.000000 50.021536
71 1 11.903093 5.000000 36.491536
72 1 11.903093 5.000000 38.951536
73 1 11.903093 5.000000 41.411536
74 1 11.903093 5.000000 43.871536
75 1 11.903093 5.000000 46.331536
76 1 11.903093 5.000000 48.791536
77 1 11.903093 5.000000 51.251536
78 1 14.044556 5.000000 35.261536
79 1 14.044556 5.000000 37.721536
80 1 14.044556 5.000000 40.181536
81 1 14.044556 5.000000 42.641536
82 1 14.044556 5.000000 45.101536
83 1 14.044556 5.000000 47.561536
84 1 14.044556 5.000000 50.021536
85 1 14.758263 5.000000 36.491536
86 1 14.758263 5.000000 38.951536
87 1 14.758263 5.000000 41.411536
88 1 14.758263 5.000000 43.871536
89 1 14.758263 5.000000 46.331536
90 1 14.758263 5.000000 48.791536
91 1 14.758263 5.000000 51.251536
92 1 16.899725 5.000000 35.261536
93 1 16.899725 5.000000 37.721536
94 1 16.899725 5.000000 40.181536
95 1 16.899725 5.000000 42.641536
96 1 16.899725 5.000000 45.101536
97 1 16.899725 5.000000 47.561536
98 1 16.899725 5.000000 50.021536
99 1 16.186018 5.000000 36.491536
100 1 16.186018 5.000000 38.951536
101 1 16.186018 5.000000 41.411536
102 1 16.186018 5.000000 43.871536
103 1 16.186018 5.000000 46.331536
104 1 16.186018 5.000000 48.791536
105 1 16.186018 5.000000 51.251536
106 1 1.195781 5.000000 35.261536
107 1 1.195781 5.000000 37.721536
108 1 1.195781 5.000000 40.181536
109 1 1.195781 5.000000 42.641536
110 1 1.195781 5.000000 45.101536
111 1 1.195781 5.000000 47.561536
112 1 1.195781 5.000000 50.021536
113 2 1.339345 5.000000 52.239036
114 2 3.907215 5.000000 52.239036
115 2 5.624497 5.000000 52.240036
116 2 8.190140 5.000000 52.239036
117 2 9.907422 5.000000 52.240036
118 2 12.473065 5.000000 52.239036
119 2 14.190347 5.000000 52.240036
120 2 16.755990 5.000000 52.239036
121 1 -0.039917 5.000000 8.565500
122 1 -0.039917 5.000000 12.826500
123 1 -0.039917 5.000000 17.087500
124 1 -0.039917 5.000000 21.348000
125 1 -0.039917 5.000000 9.986000
126 1 -0.039917 5.000000 14.246500
127 1 -0.039917 5.000000 18.507500
128 1 -0.039917 5.000000 22.768500
129 1 15.868066 5.000000 10.696000
130 1 15.868066 5.000000 14.957000
131 1 15.868066 5.000000 19.217500
132 1 15.868066 5.000000 23.478500
133 1 15.868066 5.000000 7.855500
134 1 15.868066 5.000000 12.116500
135 1 15.868066 5.000000 16.377000
136 1 15.868066 5.000000 20.638000
137 1 14.644348 5.000000 8.565500
138 1 14.644348 5.000000 12.826500
139 1 14.644348 5.000000 17.087500
140 1 14.644348 5.000000 21.348000
141 1 13.420631 5.000000 10.696000
142 1 13.420631 5.000000 14.957000
143 1 13.420631 5.000000 19.217500
144 1 13.420631 5.000000 23.478500
145 1 14.644348 5.000000 9.986000
146 1 14.644348 5.000000 14.246500
147 1 14.644348 5.000000 18.507500
148 1 14.644348 5.000000 22.768500
149 1 13.420631 5.000000 7.855500
150 1 13.420631 5.000000 12.116500
151 1 13.420631 5.000000 16.377000
152 1 13.420631 5.000000 20.638000
153 1 12.197085 5.000000 8.565500
154 1 12.197085 5.000000 12.826500
155 1 12.197085 5.000000 17.087500
156 1 12.197085 5.000000 21.348000
157 1 10.973368 5.000000 10.696000
158 1 10.973368 5.000000 14.957000
159 1 10.973368 5.000000 19.217500
160 1 10.973368 5.000000 23.478500
161 1 12.197085 5.000000 9.986000
162 1 12.197085 5.000000 14.246500
163 1 12.197085 5.000000 18.507500
164 1 12.197085 5.000000 22.768500
165 1 10.973368 5.000000 7.855500
166 1 10.973368 5.000000 12.116500
167 1 10.973368 5.000000 16.377000
168 1 10.973368 5.000000 20.638000
169 1 9.749650 5.000000 8.565500
170 1 9.749650 5.000000 12.826500
171 1 9.749650 5.000000 17.087500
172 1 9.749650 5.000000 21.348000
173 1 8.525933 5.000000 10.696000
174 1 8.525933 5.000000 14.957000
175 1 8.525933 5.000000 19.217500
176 1 8.525933 5.000000 23.478500
177 1 9.749650 5.000000 9.986000
178 1 9.749650 5.000000 14.246500
179 1 9.749650 5.000000 18.507500
180 1 9.749650 5.000000 22.768500
181 1 8.525933 5.000000 7.855500
182 1 8.525933 5.000000 12.116500
183 1 8.525933 5.000000 16.377000
184 1 8.525933 5.000000 20.638000
185 1 7.302216 5.000000 8.565500
186 1 7.302216 5.000000 12.826500
187 1 7.302216 5.000000 17.087500
188 1 7.302216 5.000000 21.348000
189 1 6.078498 5.000000 10.696000
190 1 6.078498 5.000000 14.957000
191 1 6.078498 5.000000 19.217500
192 1 6.078498 5.000000 23.478500
193 1 7.302216 5.000000 9.986000
194 1 7.302216 5.000000 14.246500
195 1 7.302216 5.000000 18.507500
196 1 7.302216 5.000000 22.768500
197 1 6.078498 5.000000 7.855500
198 1 6.078498 5.000000 12.116500
199 1 6.078498 5.000000 16.377000
200 1 6.078498 5.000000 20.638000
201 1 4.854781 5.000000 8.565500
202 1 4.854781 5.000000 12.826500
203 1 4.854781 5.000000 17.087500
204 1 4.854781 5.000000 21.348000
205 1 3.631235 5.000000 10.696000
206 1 3.631235 5.000000 14.957000
207 1 3.631235 5.000000 19.217500
208 1 3.631235 5.000000 23.478500
209 1 4.854781 5.000000 9.986000
210 1 4.854781 5.000000 14.246500
211 1 4.854781 5.000000 18.507500
212 1 4.854781 5.000000 22.768500
213 1 3.631235 5.000000 7.855500
214 1 3.631235 5.000000 12.116500
215 1 3.631235 5.000000 16.377000
216 1 3.631235 5.000000 20.638000
217 1 2.407518 5.000000 8.565500
218 1 2.407518 5.000000 12.826500
219 1 2.407518 5.000000 17.087500
220 1 2.407518 5.000000 21.348000
221 1 1.183800 5.000000 10.696000
222 1 1.183800 5.000000 14.957000
223 1 1.183800 5.000000 19.217500
224 1 1.183800 5.000000 23.478500
225 1 2.407518 5.000000 9.986000
226 1 2.407518 5.000000 14.246500
227 1 2.407518 5.000000 18.507500
228 1 2.407518 5.000000 22.768500
229 1 1.183800 5.000000 7.855500
230 1 1.183800 5.000000 12.116500
231 1 1.183800 5.000000 16.377000
232 1 1.183800 5.000000 20.638000
233 2 15.865667 5.000000 6.715500
234 2 13.423030 5.000000 6.715500
235 2 10.975766 5.000000 6.715500
236 2 8.528332 5.000000 6.715500
237 2 6.080897 5.000000 6.715500
238 2 3.633634 5.000000 6.715500
239 2 1.181402 5.000000 6.715500
240 2 3.325954 1.845771 26.612285
241 2 8.696180 2.986827 24.172285
242 2 3.908736 4.307740 25.707188
243 2 6.686952 4.680515 23.869165
244 2 11.801893 6.181109 26.502644
245 2 10.342919 7.546009 24.943869
246 2 13.948104 7.645643 25.608094
247 2 8.987683 8.276526 24.746284
248 2 14.568019 9.679290 26.651519
249 2 0.562314 0.151308 29.567041
250 2 0.641460 1.883819 27.312282
251 2 3.146807 2.928212 28.321374
252 2 0.254483 8.507315 28.539769
253 2 11.655363 0.812133 27.508269
254 2 9.003395 2.591703 27.542508
255 2 6.921736 5.389734 29.401477
256 2 8.486441 5.396238 27.516872
257 2 15.613980 7.685780 27.913135
258 2 4.306706 1.364870 33.710378
259 2 1.986049 1.954589 34.371670
260 2 1.114507 2.444963 33.198952
261 2 8.347659 2.852615 34.592947
262 2 4.463995 3.440881 31.079528
263 2 13.656752 1.835526 29.859768
264 2 14.821990 3.948349 30.205097
265 2 15.576394 4.080131 31.888856
266 2 15.003479 6.144945 33.105378
267 2 9.725771 7.261798 31.335860
268 1 3.975924 1.877139 24.000354
269 1 5.136603 1.929424 24.368321
270 1 3.917756 5.483853 24.290869
271 1 3.067054 5.805237 24.935088
272 1 2.352632 6.535282 23.509631
273 1 9.195036 0.622721 23.944165
274 1 7.759752 0.981129 23.778521
275 1 7.541042 2.303121 26.208750
276 1 8.650296 3.922220 24.844428
277 1 16.084438 4.618626 24.313256
278 1 7.341977 9.107205 26.738019
279 1 1.810247 0.863736 29.864484
280 1 3.853063 4.440506 30.100897
281 1 0.438761 7.320889 27.936362
282 1 2.686677 7.519812 27.491759
283 1 5.075339 9.793530 27.464001
284 1 10.612530 2.261880 29.014517
285 1 10.378592 5.742998 29.932735
286 1 7.698653 5.780588 28.938096
287 1 11.761000 5.833878 28.950175
288 1 8.116848 6.584619 27.747273
289 1 6.728436 9.433160 29.391265
290 1 4.234096 0.166157 31.989965
291 1 2.628098 1.453595 33.877367
292 1 5.575315 4.271259 34.007737
293 1 2.969895 6.411656 32.058239
294 1 6.940461 9.859036 30.650169
295 1 16.520469 3.006195 34.385561
296 1 16.564563 4.707472 33.827870
297 1 10.796549 6.880718 32.283808
298 1 10.970642 7.735981 32.318672
299 1 16.531577 9.752849 32.065670
300 1 8.637964 9.965823 34.680201
