300
Atoms. Timestep: 0
366207904              3.195206                     5             34.594663
366207904              3.195206                     5             37.054663
366207904              3.195206                     5             39.514663
366207904              3.195206                     5             41.974663
366207904              3.195206                     5             44.434663
366207904              3.195206                     5             46.894663
366207904              3.195206                     5             49.354663
366207904              5.336669                     5             33.364663
366207904              5.336669                     5             35.824663
366207904              5.336669                     5             38.284663
366207904              5.336669                     5             40.744663
366207904              5.336669                     5             43.204663
366207904              5.336669                     5             45.664663
366207904              5.336669                     5             48.124663
366207904              4.622962                     5             34.594663
366207904              4.622962                     5             37.054663
366207904              4.622962                     5             39.514663
366207904              4.622962                     5             41.974663
366207904              4.622962                     5             44.434663
366207904              4.622962                     5             46.894663
366207904              4.622962                     5             49.354663
366207904              6.764425                     5             33.364663
366207904              6.764425                     5             35.824663
366207904              6.764425                     5             38.284663
366207904              6.764425                     5             40.744663
366207904              6.764425                     5             43.204663
366207904              6.764425                     5             45.664663
366207904              6.764425                     5             48.124663
366207904              7.478131                     5             34.594663
366207904              7.478131                     5             37.054663
366207872              7.478131                     5             39.514663
366207872              7.478131                     5             41.974663
366207872              7.478131                     5             44.434663
366207872              7.478131                     5             46.894663
366207872              7.478131                     5             49.354663
366207872              9.619594                     5             33.364663
366207872              9.619594                     5             35.824663
366207872              9.619594                     5             38.284663
366207872              9.619594                     5             40.744663
366207872              9.619594                     5             43.204663
366207872              9.619594                     5             45.664663
366207872              9.619594                     5             48.124663
366207872              8.905887                     5             34.594663
366207872              8.905887                     5             37.054663
366207872              8.905887                     5             39.514663
366207872              8.905887                     5             41.974663
366207872              8.905887                     5             44.434663
366207872              8.905887                     5             46.894663
366207872              8.905887                     5             49.354663
366207872              11.04735                     5             33.364663
366207872              11.04735                     5             35.824663
366207872              11.04735                     5             38.284663
366207872              11.04735                     5             40.744663
366207872              11.04735                     5             43.204663
366207872              11.04735                     5             45.664663
366207872              11.04735                     5             48.124663
366207872             11.761056                     5             34.594663
366207872             11.761056                     5             37.054663
366207872             11.761056                     5             39.514663
366207872             11.761056                     5             41.974663
366207872             11.761056                     5             44.434663
366207872             11.761056                     5             46.894663
366207872             11.761056                     5             49.354663
366207872             13.902519                     5             33.364663
366207872             13.902519                     5             35.824663
366207872             13.902519                     5             38.284663
366207872             13.902519                     5             40.744663
366207872             13.902519                     5             43.204663
366207872             13.902519                     5             45.664663
366207872             13.902519                     5             48.124663
366207872             13.188812                     5             34.594663
366207872             13.188812                     5             37.054663
366207872             13.188812                     5             39.514663
366207872             13.188812                     5             41.974663
366207872             13.188812                     5             44.434663
366207872             13.188812                     5             46.894663
366207872             13.188812                     5             49.354663
366207872             15.330275                     5             33.364663
366207872             15.330275                     5             35.824663
366207872             15.330275                     5             38.284663
366207872             15.330275                     5             40.744663
366207872             15.330275                     5             43.204663
366207872             15.330275                     5             45.664663
366207872             15.330275                     5             48.124663
366207872             16.043981                     5             34.594663
366207872             16.043981                     5             37.054663
366207872             16.043981                     5             39.514663
366207872             16.043981                     5             41.974663
366207872             16.043981                     5             44.434663
366207872             16.043981                     5             46.894663
366207872             16.043981                     5             49.354663
366207872              1.053744                     5             33.364663
366207872              1.053744                     5             35.824663
366207872              1.053744                     5             38.284663
366207872              1.053744                     5             40.744663
366207872              1.053744                     5             43.204663
366207872              1.053744                     5             45.664663
366207872              1.053744                     5             48.124663
366207872              0.340037                     5             34.594663
366207872              0.340037                     5             37.054663
366207872              0.340037                     5             39.514663
366207872              0.340037                     5             41.974663
366207872              0.340037                     5             44.434663
366207872              0.340037                     5             46.894663
366207872              0.340037                     5             49.354663
366207872                2.4815                     5             33.364663
366207872                2.4815                     5             35.824663
366207872                2.4815                     5             38.284663
366207872                2.4815                     5             40.744663
366207872                2.4815                     5             43.204663
366207872                2.4815                     5             45.664663
366207872                2.4815                     5             48.124663
366207904              2.625063                     5     0.342162999999999
366207904              5.192934                     5     0.342162999999999
366207904              6.910216                     5     0.343162999999997
366207904              9.475859                     5     0.342162999999999
366207904             11.193141                     5     0.343162999999997
366207904             13.758784                     5     0.342162999999999
366207904             15.476066                     5     0.343162999999997
366207904              0.910009                     5     0.342162999999999
366207872             17.091783                     5                8.5655
366207872             17.091783                     5               12.8265
366207872             17.091783                     5               17.0875
366207872             17.091783                     5                21.348
366207872             17.091783                     5                 9.986
366207872             17.091783                     5               14.2465
366207872             17.091783                     5               18.5075
366207872             17.091783                     5               22.7685
366207872             15.868066                     5                10.696
366207872             15.868066                     5                14.957
366207872             15.868066                     5               19.2175
366207872             15.868066                     5               23.4785
366207872             15.868066                     5                7.8555
366207872             15.868066                     5               12.1165
366207872             15.868066                     5                16.377
366207872             15.868066                     5                20.638
366207872             14.644348                     5                8.5655
366207872             14.644348                     5               12.8265
366207872             14.644348                     5               17.0875
366207872             14.644348                     5                21.348
366207872             13.420631                     5                10.696
366207872             13.420631                     5                14.957
366207872             13.420631                     5               19.2175
366207872             13.420631                     5               23.4785
366207872             14.644348                     5                 9.986
366207872             14.644348                     5               14.2465
366207872             14.644348                     5               18.5075
366207872             14.644348                     5               22.7685
366207872             13.420631                     5                7.8555
366207872             13.420631                     5               12.1165
366207872             13.420631                     5                16.377
366207872             13.420631                     5                20.638
366207872             12.197085                     5                8.5655
366207872             12.197085                     5               12.8265
366207872             12.197085                     5               17.0875
366207872             12.197085                     5                21.348
366207872             10.973368                     5                10.696
366207872             10.973368                     5                14.957
366207872             10.973368                     5               19.2175
366207872             10.973368                     5               23.4785
366207872             12.197085                     5                 9.986
366207872             12.197085                     5               14.2465
366207872             12.197085                     5               18.5075
366207872             12.197085                     5               22.7685
366207872             10.973368                     5                7.8555
366207872             10.973368                     5               12.1165
366207872             10.973368                     5                16.377
366207872             10.973368                     5                20.638
366207872               9.74965                     5                8.5655
366207872               9.74965                     5               12.8265
366207872               9.74965                     5               17.0875
366207872               9.74965                     5                21.348
366207872              8.525933                     5                10.696
366207872              8.525933                     5                14.957
366207872              8.525933                     5               19.2175
366207872              8.525933                     5               23.4785
366207872               9.74965                     5                 9.986
366207872               9.74965                     5               14.2465
366207872               9.74965                     5               18.5075
366207872               9.74965                     5               22.7685
366207872              8.525933                     5                7.8555
366207872              8.525933                     5               12.1165
366207872              8.525933                     5                16.377
366207872              8.525933                     5                20.638
366207872              7.302216                     5                8.5655
366207872              7.302216                     5               12.8265
366207872              7.302216                     5               17.0875
366207872              7.302216                     5                21.348
366207872              6.078498                     5                10.696
366207872              6.078498                     5                14.957
366207872              6.078498                     5               19.2175
366207872              6.078498                     5               23.4785
366207872              7.302216                     5                 9.986
366207872              7.302216                     5               14.2465
366207872              7.302216                     5               18.5075
366207872              7.302216                     5               22.7685
366207872              6.078498                     5                7.8555
366207872              6.078498                     5               12.1165
366207872              6.078498                     5                16.377
366207872              6.078498                     5                20.638
366207872              4.854781                     5                8.5655
366207872              4.854781                     5               12.8265
366207872              4.854781                     5               17.0875
366207872              4.854781                     5                21.348
366207872              3.631235                     5                10.696
366207872              3.631235                     5                14.957
366207872              3.631235                     5               19.2175
366207872              3.631235                     5               23.4785
366207872              4.854781                     5                 9.986
366207872              4.854781                     5               14.2465
366207872              4.854781                     5               18.5075
366207872              4.854781                     5               22.7685
366207872              3.631235                     5                7.8555
366207872              3.631235                     5               12.1165
366207872              3.631235                     5                16.377
366207872              3.631235                     5                20.638
366207872              2.407518                     5                8.5655
366207872              2.407518                     5               12.8265
366207872              2.407518                     5               17.0875
366207872              2.407518                     5                21.348
366207872                1.1838                     5                10.696
366207872                1.1838                     5                14.957
366207872                1.1838                     5               19.2175
366207872                1.1838                     5               23.4785
366207872              2.407518                     5                 9.986
366207872              2.407518                     5               14.2465
366207872              2.407518                     5               18.5075
366207872              2.407518                     5               22.7685
366207872                1.1838                     5                7.8555
366207872                1.1838                     5               12.1165
366207872                1.1838                     5                16.377
366207872                1.1838                     5                20.638
366207904             15.865667                     5                6.7155
366207904              13.42303                     5                6.7155
366207904             10.975766                     5                6.7155
366207904              8.528332                     5                6.7155
366207904              6.080897                     5                6.7155
366207904              3.633634                     5                6.7155
366207904              1.181402                     5                6.7155
366207904              9.740772              1.031286             24.837281
366207904             13.047378              6.021494             25.643125
366207904              6.640213              3.391278             25.590243
366207904             13.715404              1.208385             26.292603
366207904             11.104994              1.398985             25.572733
366207904             11.216349              2.507331                  23.5
366207904               1.36713              2.576487                  23.5
366207904              2.800293              3.710433             25.152312
366207904             10.846982               7.09597             24.764953
366207904               0.48402              0.657359              27.86462
366207904              6.324603              5.358741             27.262884
366207904               4.38798              5.955767             27.167871
366207904              4.404335               6.54708             26.552028
366207904              9.615289              3.216876             26.655528
366207904             15.081175              5.794486             25.369948
366207904             12.099315              4.581168             25.890689
366207904              7.738464              6.927324             27.193682
366207904              13.20047              7.518417             28.355328
366207904              5.957895               3.99191             31.305168
366207904               3.03659              6.321346             32.165268
366207904               4.84499              6.389958             30.493674
366207904              6.252435              8.567636              31.79493
366207904             15.939022              9.458968             29.757595
366207904              6.848736              7.337162             29.855552
366207904             12.549847              5.515721             30.744416
366207904              6.362923              6.416738             29.962447
366207904              0.378027              7.950621             28.905829
366207904             11.469287              8.028401             33.209704
366207872              1.202015               1.35377              25.34279
366207872               5.17696              4.599123             23.549108
366207872              5.220929              6.347866             25.550453
366207872             15.030054              0.886837             25.122071
366207872              3.427238              7.341236             25.004039
366207872             14.461738              0.038899             25.155588
366207872             11.067142               9.83452             25.087744
366207872             14.772657              3.470752              25.26093
366207872              7.161205              5.529356              25.86316
366207872             12.773155              5.056185             24.712729
366207872             14.122722              8.149379             24.137154
366207872             17.130862              0.014722              28.81796
366207872                  3.24              1.455545             26.991448
366207872              4.137353              4.427044             24.943719
366207872             15.366811              4.567779             28.163777
366207872              0.318833              5.066305             28.292226
366207872              2.216663              2.384577             28.656013
366207872              8.469285               3.29701             30.035922
366207872              7.957631              3.344981             28.819726
366207872              1.882541              3.866066             28.489259
366207872             14.172949              6.243462             25.794895
366207872              7.002396               7.11589             27.000313
366207872              2.871316              0.970287             33.288163
366207872             15.087741              9.830797             32.935449
366207872              0.315647              9.592046             32.165182
366207872              0.100671              6.060659                32.801
366207872             13.947648              8.733255             29.426849
366207872             15.248934              1.937794             30.522858
366207872             12.622466              3.958384             32.150734
366207872              0.218412              5.815019             29.770728
366207872              6.491067               7.10354             33.288163
366207872             16.999852              9.799219             31.063789
366207872              7.899087              8.969593             33.288163
300
Atoms. Timestep: 10
366207904      3.19448709619654                     5      34.5948966663164
366207904      3.19448709619654                     5      37.0548966663164
366207904      3.19448709619654                     5      39.5148966663164
366207904      3.19448709619654                     5      41.9748966663164
366207904      3.19448709619654                     5      44.4348966663164
366207904      3.19448709619654                     5      46.8948966663164
366207904      3.19448709619654                     5      49.3548966663164
366207904      5.33595009619654                     5      33.3648966663164
366207904      5.33595009619654                     5      35.8248966663164
366207904      5.33595009619654                     5      38.2848966663164
366207904      5.33595009619654                     5      40.7448966663164
366207904      5.33595009619654                     5      43.2048966663164
366207904      5.33595009619654                     5      45.6648966663164
366207904      5.33595009619654                     5      48.1248966663164
366207904      4.62224309619654                     5      34.5948966663164
366207904      4.62224309619654                     5      37.0548966663164
366207904      4.62224309619654                     5      39.5148966663164
366207904      4.62224309619654                     5      41.9748966663164
366207904      4.62224309619654                     5      44.4348966663164
366207904      4.62224309619654                     5      46.8948966663164
366207904      4.62224309619654                     5      49.3548966663164
366207904      6.76370609619654                     5      33.3648966663164
366207904      6.76370609619654                     5      35.8248966663164
366207904      6.76370609619654                     5      38.2848966663164
366207904      6.76370609619654                     5      40.7448966663164
366207904      6.76370609619654                     5      43.2048966663164
366207904      6.76370609619654                     5      45.6648966663164
366207904      6.76370609619654                     5      48.1248966663164
366207904      7.47741209619654                     5      34.5948966663164
366207904      7.47741209619654                     5      37.0548966663164
366207872      7.47741209619654                     5      39.5148966663164
366207872      7.47741209619654                     5      41.9748966663164
366207872      7.47741209619654                     5      44.4348966663164
366207872      7.47741209619654                     5      46.8948966663164
366207872      7.47741209619654                     5      49.3548966663164
366207872      9.61887509619654                     5      33.3648966663164
366207872      9.61887509619654                     5      35.8248966663164
366207872      9.61887509619654                     5      38.2848966663164
366207872      9.61887509619654                     5      40.7448966663164
366207872      9.61887509619654                     5      43.2048966663164
366207872      9.61887509619654                     5      45.6648966663164
366207872      9.61887509619654                     5      48.1248966663164
366207872      8.90516809619654                     5      34.5948966663164
366207872      8.90516809619654                     5      37.0548966663164
366207872      8.90516809619654                     5      39.5148966663164
366207872      8.90516809619654                     5      41.9748966663164
366207872      8.90516809619654                     5      44.4348966663164
366207872      8.90516809619654                     5      46.8948966663164
366207872      8.90516809619654                     5      49.3548966663164
366207872      11.0466310961965                     5      33.3648966663164
366207872      11.0466310961965                     5      35.8248966663164
366207872      11.0466310961965                     5      38.2848966663164
366207872      11.0466310961965                     5      40.7448966663164
366207872      11.0466310961965                     5      43.2048966663164
366207872      11.0466310961965                     5      45.6648966663164
366207872      11.0466310961965                     5      48.1248966663164
366207872      11.7603370961965                     5      34.5948966663164
366207872      11.7603370961965                     5      37.0548966663164
366207872      11.7603370961965                     5      39.5148966663164
366207872      11.7603370961965                     5      41.9748966663164
366207872      11.7603370961965                     5      44.4348966663164
366207872      11.7603370961965                     5      46.8948966663164
366207872      11.7603370961965                     5      49.3548966663164
366207872      13.9018000961965                     5      33.3648966663164
366207872      13.9018000961965                     5      35.8248966663164
366207872      13.9018000961965                     5      38.2848966663164
366207872      13.9018000961965                     5      40.7448966663164
366207872      13.9018000961965                     5      43.2048966663164
366207872      13.9018000961965                     5      45.6648966663164
366207872      13.9018000961965                     5      48.1248966663164
366207872      13.1880930961965                     5      34.5948966663164
366207872      13.1880930961965                     5      37.0548966663164
366207872      13.1880930961965                     5      39.5148966663164
366207872      13.1880930961965                     5      41.9748966663164
366207872      13.1880930961965                     5      44.4348966663164
366207872      13.1880930961965                     5      46.8948966663164
366207872      13.1880930961965                     5      49.3548966663164
366207872      15.3295560961965                     5      33.3648966663164
366207872      15.3295560961965                     5      35.8248966663164
366207872      15.3295560961965                     5      38.2848966663164
366207872      15.3295560961965                     5      40.7448966663164
366207872      15.3295560961965                     5      43.2048966663164
366207872      15.3295560961965                     5      45.6648966663164
366207872      15.3295560961965                     5      48.1248966663164
366207872      16.0432620961965                     5      34.5948966663164
366207872      16.0432620961965                     5      37.0548966663164
366207872      16.0432620961965                     5      39.5148966663164
366207872      16.0432620961965                     5      41.9748966663164
366207872      16.0432620961965                     5      44.4348966663164
366207872      16.0432620961965                     5      46.8948966663164
366207872      16.0432620961965                     5      49.3548966663164
366207872      1.05302509619654                     5      33.3648966663164
366207872      1.05302509619654                     5      35.8248966663164
366207872      1.05302509619654                     5      38.2848966663164