LAMMPS (30 Aug 2012)
units		metal
boundary	p p p
atom_style	atomic
read_data	struct.lammps
  orthogonal box = (0 0 0) to (17.1317 10 50)
  1 by 1 by 1 MPI processor grid
  300 atoms

pair_style      airebo 3.0
pair_coeff      * * CH.airebo C H

mass	1	12.0
mass	2	1.0

group		fixPosH id <> 1 120
120 atoms in group fixPosH
group		fixPosL id <> 121 239
119 atoms in group fixPosL
group		optPos  id <> 240 1000
61 atoms in group optPos
fix             0       fixPosH setforce NULL 0.0 NULL
fix             1       fixPosH aveforce 0.0 0.0 0.0
fix		2	fixPosL setforce 0.0 0.0 0.0
fix 		3	optPos	setforce NULL 0.0 NULL

neighbor        0.2 bin
neigh_modify	every 1 delay 0 check yes

timestep	0.002
thermo 		1
thermo_style    custom step  pe etotal lx ly lz 

dump		1 all xyz 10000000 dump.atom
dump_modify	1 format "%d  %20.15g  %20.15g  %20.15g" 
#fix 		8 all box/relax iso 0.0 
min_style	cg
minimize	1.0e-12 1.0e-12 10 10
Memory usage per processor = 3.26767 Mbytes
Step PotEng TotEng Lx Ly Lz 
       0   -1057.4788   -1057.4788      17.1317           10           50 
       1   -1093.4575   -1093.4575      17.1317           10           50 
       2   -1116.9364   -1116.9364      17.1317           10           50 
       3   -1133.3245   -1133.3245      17.1317           10           50 
       4    -1145.105    -1145.105      17.1317           10           50 
       5   -1153.5022   -1153.5022      17.1317           10           50 
       6   -1160.7813   -1160.7813      17.1317           10           50 
       7   -1169.3968   -1169.3968      17.1317           10           50 
       8   -1174.4081   -1174.4081      17.1317           10           50 
       9   -1178.1606   -1178.1606      17.1317           10           50 
      10   -1180.9357   -1180.9357      17.1317           10           50 
Loop time of 0.360363 on 1 procs for 10 steps with 300 atoms

Minimization stats:
  Stopping criterion = max force evaluations
  Energy initial, next-to-last, final = 
        -1057.47876276     -1178.16055714     -1180.93570139
  Force two-norm initial, final = 330.876 10.995
  Force max component initial, final = 272.667 3.65451
  Final line search alpha, max atom move = 0.0167451 0.0611951
  Iterations, force evaluations = 10 10

Pair  time (%) = 0.138985 (38.568)
Neigh time (%) = 0.217906 (60.4685)
Comm  time (%) = 0.00143528 (0.398287)
Outpt time (%) = 0.00013113 (0.0363884)
Other time (%) = 0.00190592 (0.528888)

Nlocal:    300 ave 300 max 300 min
Histogram: 1 0 0 0 0 0 0 0 0 0
Nghost:    2374 ave 2374 max 2374 min
Histogram: 1 0 0 0 0 0 0 0 0 0
Neighs:    0 ave 0 max 0 min
Histogram: 1 0 0 0 0 0 0 0 0 0
FullNghs:  46208 ave 46208 max 46208 min
Histogram: 1 0 0 0 0 0 0 0 0 0

Total # of neighbors = 46208
Ave neighs/atom = 154.027
Neighbor list builds = 10
Dangerous builds = 10
min_modify line quadratic

clear
