search structure

300 atoms
2  atom types

0   17.131700 xlo xhi
0   10.000000 ylo yhi
0   50.000000 zlo zhi

Atoms

1 2 3.195206 5.000000 34.594663
2 2 3.195206 5.000000 37.054663
3 2 3.195206 5.000000 39.514663
4 2 3.195206 5.000000 41.974663
5 2 3.195206 5.000000 44.434663
6 2 3.195206 5.000000 46.894663
7 2 3.195206 5.000000 49.354663
8 2 5.336669 5.000000 33.364663
9 2 5.336669 5.000000 35.824663
10 2 5.336669 5.000000 38.284663
11 2 5.336669 5.000000 40.744663
12 2 5.336669 5.000000 43.204663
13 2 5.336669 5.000000 45.664663
14 2 5.336669 5.000000 48.124663
15 2 4.622962 5.000000 34.594663
16 2 4.622962 5.000000 37.054663
17 2 4.622962 5.000000 39.514663
18 2 4.622962 5.000000 41.974663
19 2 4.622962 5.000000 44.434663
20 2 4.622962 5.000000 46.894663
21 2 4.622962 5.000000 49.354663
22 2 6.764425 5.000000 33.364663
23 2 6.764425 5.000000 35.824663
24 2 6.764425 5.000000 38.284663
25 2 6.764425 5.000000 40.744663
26 2 6.764425 5.000000 43.204663
27 2 6.764425 5.000000 45.664663
28 2 6.764425 5.000000 48.124663
29 2 7.478131 5.000000 34.594663
30 2 7.478131 5.000000 37.054663
31 1 7.478131 5.000000 39.514663
32 1 7.478131 5.000000 41.974663
33 1 7.478131 5.000000 44.434663
34 1 7.478131 5.000000 46.894663
35 1 7.478131 5.000000 49.354663
36 1 9.619594 5.000000 33.364663
37 1 9.619594 5.000000 35.824663
38 1 9.619594 5.000000 38.284663
39 1 9.619594 5.000000 40.744663
40 1 9.619594 5.000000 43.204663
41 1 9.619594 5.000000 45.664663
42 1 9.619594 5.000000 48.124663
43 1 8.905887 5.000000 34.594663
44 1 8.905887 5.000000 37.054663
45 1 8.905887 5.000000 39.514663
46 1 8.905887 5.000000 41.974663
47 1 8.905887 5.000000 44.434663
48 1 8.905887 5.000000 46.894663
49 1 8.905887 5.000000 49.354663
50 1 11.047350 5.000000 33.364663
51 1 11.047350 5.000000 35.824663
52 1 11.047350 5.000000 38.284663
53 1 11.047350 5.000000 40.744663
54 1 11.047350 5.000000 43.204663
55 1 11.047350 5.000000 45.664663
56 1 11.047350 5.000000 48.124663
57 1 11.761056 5.000000 34.594663
58 1 11.761056 5.000000 37.054663
59 1 11.761056 5.000000 39.514663
60 1 11.761056 5.000000 41.974663
61 1 11.761056 5.000000 44.434663
62 1 11.761056 5.000000 46.894663
63 1 11.761056 5.000000 49.354663
64 1 13.902519 5.000000 33.364663
65 1 13.902519 5.000000 35.824663
66 1 13.902519 5.000000 38.284663
67 1 13.902519 5.000000 40.744663
68 1 13.902519 5.000000 43.204663
69 1 13.902519 5.000000 45.664663
70 1 13.902519 5.000000 48.124663
71 1 13.188812 5.000000 34.594663
72 1 13.188812 5.000000 37.054663
73 1 13.188812 5.000000 39.514663
74 1 13.188812 5.000000 41.974663
75 1 13.188812 5.000000 44.434663
76 1 13.188812 5.000000 46.894663
77 1 13.188812 5.000000 49.354663
78 1 15.330275 5.000000 33.364663
79 1 15.330275 5.000000 35.824663
80 1 15.330275 5.000000 38.284663
81 1 15.330275 5.000000 40.744663
82 1 15.330275 5.000000 43.204663
83 1 15.330275 5.000000 45.664663
84 1 15.330275 5.000000 48.124663
85 1 16.043981 5.000000 34.594663
86 1 16.043981 5.000000 37.054663
87 1 16.043981 5.000000 39.514663
88 1 16.043981 5.000000 41.974663
89 1 16.043981 5.000000 44.434663
90 1 16.043981 5.000000 46.894663
91 1 16.043981 5.000000 49.354663
92 1 1.053744 5.000000 33.364663
93 1 1.053744 5.000000 35.824663
94 1 1.053744 5.000000 38.284663
95 1 1.053744 5.000000 40.744663
96 1 1.053744 5.000000 43.204663
97 1 1.053744 5.000000 45.664663
98 1 1.053744 5.000000 48.124663
99 1 0.340037 5.000000 34.594663
100 1 0.340037 5.000000 37.054663
101 1 0.340037 5.000000 39.514663
102 1 0.340037 5.000000 41.974663
103 1 0.340037 5.000000 44.434663
104 1 0.340037 5.000000 46.894663
105 1 0.340037 5.000000 49.354663
106 1 2.481500 5.000000 33.364663
107 1 2.481500 5.000000 35.824663
108 1 2.481500 5.000000 38.284663
109 1 2.481500 5.000000 40.744663
110 1 2.481500 5.000000 43.204663
111 1 2.481500 5.000000 45.664663
112 1 2.481500 5.000000 48.124663
113 2 2.625063 5.000000 50.342163
114 2 5.192934 5.000000 50.342163
115 2 6.910216 5.000000 50.343163
116 2 9.475859 5.000000 50.342163
117 2 11.193141 5.000000 50.343163
118 2 13.758784 5.000000 50.342163
119 2 15.476066 5.000000 50.343163
120 2 0.910009 5.000000 50.342163
121 1 -0.039917 5.000000 8.565500
122 1 -0.039917 5.000000 12.826500
123 1 -0.039917 5.000000 17.087500
124 1 -0.039917 5.000000 21.348000
125 1 -0.039917 5.000000 9.986000
126 1 -0.039917 5.000000 14.246500
127 1 -0.039917 5.000000 18.507500
128 1 -0.039917 5.000000 22.768500
129 1 15.868066 5.000000 10.696000
130 1 15.868066 5.000000 14.957000
131 1 15.868066 5.000000 19.217500
132 1 15.868066 5.000000 23.478500
133 1 15.868066 5.000000 7.855500
134 1 15.868066 5.000000 12.116500
135 1 15.868066 5.000000 16.377000
136 1 15.868066 5.000000 20.638000
137 1 14.644348 5.000000 8.565500
138 1 14.644348 5.000000 12.826500
139 1 14.644348 5.000000 17.087500
140 1 14.644348 5.000000 21.348000
141 1 13.420631 5.000000 10.696000
142 1 13.420631 5.000000 14.957000
143 1 13.420631 5.000000 19.217500
144 1 13.420631 5.000000 23.478500
145 1 14.644348 5.000000 9.986000
146 1 14.644348 5.000000 14.246500
147 1 14.644348 5.000000 18.507500
148 1 14.644348 5.000000 22.768500
149 1 13.420631 5.000000 7.855500
150 1 13.420631 5.000000 12.116500
151 1 13.420631 5.000000 16.377000
152 1 13.420631 5.000000 20.638000
153 1 12.197085 5.000000 8.565500
154 1 12.197085 5.000000 12.826500
155 1 12.197085 5.000000 17.087500
156 1 12.197085 5.000000 21.348000
157 1 10.973368 5.000000 10.696000
158 1 10.973368 5.000000 14.957000
159 1 10.973368 5.000000 19.217500
160 1 10.973368 5.000000 23.478500
161 1 12.197085 5.000000 9.986000
162 1 12.197085 5.000000 14.246500
163 1 12.197085 5.000000 18.507500
164 1 12.197085 5.000000 22.768500
165 1 10.973368 5.000000 7.855500
166 1 10.973368 5.000000 12.116500
167 1 10.973368 5.000000 16.377000
168 1 10.973368 5.000000 20.638000
169 1 9.749650 5.000000 8.565500
170 1 9.749650 5.000000 12.826500
171 1 9.749650 5.000000 17.087500
172 1 9.749650 5.000000 21.348000
173 1 8.525933 5.000000 10.696000
174 1 8.525933 5.000000 14.957000
175 1 8.525933 5.000000 19.217500
176 1 8.525933 5.000000 23.478500
177 1 9.749650 5.000000 9.986000
178 1 9.749650 5.000000 14.246500
179 1 9.749650 5.000000 18.507500
180 1 9.749650 5.000000 22.768500
181 1 8.525933 5.000000 7.855500
182 1 8.525933 5.000000 12.116500
183 1 8.525933 5.000000 16.377000
184 1 8.525933 5.000000 20.638000
185 1 7.302216 5.000000 8.565500
186 1 7.302216 5.000000 12.826500
187 1 7.302216 5.000000 17.087500
188 1 7.302216 5.000000 21.348000
189 1 6.078498 5.000000 10.696000
190 1 6.078498 5.000000 14.957000
191 1 6.078498 5.000000 19.217500
192 1 6.078498 5.000000 23.478500
193 1 7.302216 5.000000 9.986000
194 1 7.302216 5.000000 14.246500
195 1 7.302216 5.000000 18.507500
196 1 7.302216 5.000000 22.768500
197 1 6.078498 5.000000 7.855500
198 1 6.078498 5.000000 12.116500
199 1 6.078498 5.000000 16.377000
200 1 6.078498 5.000000 20.638000
201 1 4.854781 5.000000 8.565500
202 1 4.854781 5.000000 12.826500
203 1 4.854781 5.000000 17.087500
204 1 4.854781 5.000000 21.348000
205 1 3.631235 5.000000 10.696000
206 1 3.631235 5.000000 14.957000
207 1 3.631235 5.000000 19.217500
208 1 3.631235 5.000000 23.478500
209 1 4.854781 5.000000 9.986000
210 1 4.854781 5.000000 14.246500
211 1 4.854781 5.000000 18.507500
212 1 4.854781 5.000000 22.768500
213 1 3.631235 5.000000 7.855500
214 1 3.631235 5.000000 12.116500
215 1 3.631235 5.000000 16.377000
216 1 3.631235 5.000000 20.638000
217 1 2.407518 5.000000 8.565500
218 1 2.407518 5.000000 12.826500
219 1 2.407518 5.000000 17.087500
220 1 2.407518 5.000000 21.348000
221 1 1.183800 5.000000 10.696000
222 1 1.183800 5.000000 14.957000
223 1 1.183800 5.000000 19.217500
224 1 1.183800 5.000000 23.478500
225 1 2.407518 5.000000 9.986000
226 1 2.407518 5.000000 14.246500
227 1 2.407518 5.000000 18.507500
228 1 2.407518 5.000000 22.768500
229 1 1.183800 5.000000 7.855500
230 1 1.183800 5.000000 12.116500
231 1 1.183800 5.000000 16.377000
232 1 1.183800 5.000000 20.638000
233 2 15.865667 5.000000 6.715500
234 2 13.423030 5.000000 6.715500
235 2 10.975766 5.000000 6.715500
236 2 8.528332 5.000000 6.715500
237 2 6.080897 5.000000 6.715500
238 2 3.633634 5.000000 6.715500
239 2 1.181402 5.000000 6.715500
240 2 9.740772 1.031286 24.837281
241 2 13.047378 6.021494 25.643125
242 2 6.640213 3.391278 25.590243
243 2 13.715404 1.208385 26.292603
244 2 11.104994 1.398985 25.572733
245 2 11.216349 2.507331 23.500000
246 2 1.367130 2.576487 23.500000
247 2 2.800293 3.710433 25.152312
248 2 10.846982 7.095970 24.764953
249 2 0.484020 0.657359 27.864620
250 2 6.324603 5.358741 27.262884
251 2 4.387980 5.955767 27.167871
252 2 4.404335 6.547080 26.552028
253 2 9.615289 3.216876 26.655528
254 2 15.081175 5.794486 25.369948
255 2 12.099315 4.581168 25.890689
256 2 7.738464 6.927324 27.193682
257 2 13.200470 7.518417 28.355328
258 2 5.957895 3.991910 31.305168
259 2 3.036590 6.321346 32.165268
260 2 4.844990 6.389958 30.493674
261 2 6.252435 8.567636 31.794930
262 2 15.939022 9.458968 29.757595
263 2 6.848736 7.337162 29.855552
264 2 12.549847 5.515721 30.744416
265 2 6.362923 6.416738 29.962447
266 2 0.378027 7.950621 28.905829
267 2 11.469287 8.028401 33.209704
268 1 1.202015 1.353770 25.342790
269 1 5.176960 4.599123 23.549108
270 1 5.220929 6.347866 25.550453
271 1 15.030054 0.886837 25.122071
272 1 3.427238 7.341236 25.004039
273 1 14.461738 0.038899 25.155588
274 1 11.067142 9.834520 25.087744
275 1 14.772657 3.470752 25.260930
276 1 7.161205 5.529356 25.863160
277 1 12.773155 5.056185 24.712729
278 1 14.122722 8.149379 24.137154
279 1 17.130862 0.014722 28.817960
280 1 3.240000 1.455545 26.991448
281 1 4.137353 4.427044 24.943719
282 1 15.366811 4.567779 28.163777
283 1 0.318833 5.066305 28.292226
284 1 2.216663 2.384577 28.656013
285 1 8.469285 3.297010 30.035922
286 1 7.957631 3.344981 28.819726
287 1 1.882541 3.866066 28.489259
288 1 14.172949 6.243462 25.794895
289 1 7.002396 7.115890 27.000313
290 1 2.871316 0.970287 33.288163
291 1 15.087741 9.830797 32.935449
292 1 0.315647 9.592046 32.165182
293 1 0.100671 6.060659 32.801000
294 1 13.947648 8.733255 29.426849
295 1 15.248934 1.937794 30.522858
296 1 12.622466 3.958384 32.150734
297 1 0.218412 5.815019 29.770728
298 1 6.491067 7.103540 33.288163
299 1 16.999852 9.799219 31.063789
300 1 7.899087 8.969593 33.288163
