300
Atoms. Timestep: 0
368550816             16.606396                     5             34.594158
368550816             16.606396                     5             37.054158
368550816             16.606396                     5             39.514158
368550816             16.606396                     5             41.974158
368550816             16.606396                     5             44.434158
368550816             16.606396                     5             46.894158
368550816             16.606396                     5             49.354158
368550816              1.616159                     5             33.364158
368550816              1.616159                     5             35.824158
368550816              1.616159                     5             38.284158
368550816              1.616159                     5             40.744158
368550816              1.616159                     5             43.204158
368550816              1.616159                     5             45.664158
368550816              1.616159                     5             48.124158
368550816              0.902452                     5             34.594158
368550816              0.902452                     5             37.054158
368550816              0.902452                     5             39.514158
368550816              0.902452                     5             41.974158
368550816              0.902452                     5             44.434158
368550816              0.902452                     5             46.894158
368550816              0.902452                     5             49.354158
368550816              3.043915                     5             33.364158
368550816              3.043915                     5             35.824158
368550816              3.043915                     5             38.284158
368550816              3.043915                     5             40.744158
368550816              3.043915                     5             43.204158
368550816              3.043915                     5             45.664158
368550816              3.043915                     5             48.124158
368550816              3.757621                     5             34.594158
368550816              3.757621                     5             37.054158
368550784              3.757621                     5             39.514158
368550784              3.757621                     5             41.974158
368550784              3.757621                     5             44.434158
368550784              3.757621                     5             46.894158
368550784              3.757621                     5             49.354158
368550784              5.899084                     5             33.364158
368550784              5.899084                     5             35.824158
368550784              5.899084                     5             38.284158
368550784              5.899084                     5             40.744158
368550784              5.899084                     5             43.204158
368550784              5.899084                     5             45.664158
368550784              5.899084                     5             48.124158
368550784              5.185377                     5             34.594158
368550784              5.185377                     5             37.054158
368550784              5.185377                     5             39.514158
368550784              5.185377                     5             41.974158
368550784              5.185377                     5             44.434158
368550784              5.185377                     5             46.894158
368550784              5.185377                     5             49.354158
368550784               7.32684                     5             33.364158
368550784               7.32684                     5             35.824158
368550784               7.32684                     5             38.284158
368550784               7.32684                     5             40.744158
368550784               7.32684                     5             43.204158
368550784               7.32684                     5             45.664158
368550784               7.32684                     5             48.124158
368550784              8.040546                     5             34.594158
368550784              8.040546                     5             37.054158
368550784              8.040546                     5             39.514158
368550784              8.040546                     5             41.974158
368550784              8.040546                     5             44.434158
368550784              8.040546                     5             46.894158
368550784              8.040546                     5             49.354158
368550784             10.182009                     5             33.364158
368550784             10.182009                     5             35.824158
368550784             10.182009                     5             38.284158
368550784             10.182009                     5             40.744158
368550784             10.182009                     5             43.204158
368550784             10.182009                     5             45.664158
368550784             10.182009                     5             48.124158
368550784              9.468302                     5             34.594158
368550784              9.468302                     5             37.054158
368550784              9.468302                     5             39.514158
368550784              9.468302                     5             41.974158
368550784              9.468302                     5             44.434158
368550784              9.468302                     5             46.894158
368550784              9.468302                     5             49.354158
368550784             11.609765                     5             33.364158
368550784             11.609765                     5             35.824158
368550784             11.609765                     5             38.284158
368550784             11.609765                     5             40.744158
368550784             11.609765                     5             43.204158
368550784             11.609765                     5             45.664158
368550784             11.609765                     5             48.124158
368550784             12.323471                     5             34.594158
368550784             12.323471                     5             37.054158
368550784             12.323471                     5             39.514158
368550784             12.323471                     5             41.974158
368550784             12.323471                     5             44.434158
368550784             12.323471                     5             46.894158
368550784             12.323471                     5             49.354158
368550784             14.464934                     5             33.364158
368550784             14.464934                     5             35.824158
368550784             14.464934                     5             38.284158
368550784             14.464934                     5             40.744158
368550784             14.464934                     5             43.204158
368550784             14.464934                     5             45.664158
368550784             14.464934                     5             48.124158
368550784             13.751227                     5             34.594158
368550784             13.751227                     5             37.054158
368550784             13.751227                     5             39.514158
368550784             13.751227                     5             41.974158
368550784             13.751227                     5             44.434158
368550784             13.751227                     5             46.894158
368550784             13.751227                     5             49.354158
368550784              15.89269                     5             33.364158
368550784              15.89269                     5             35.824158
368550784              15.89269                     5             38.284158
368550784              15.89269                     5             40.744158
368550784              15.89269                     5             43.204158
368550784              15.89269                     5             45.664158
368550784              15.89269                     5             48.124158
368550816             16.036253                     5     0.341658000000002
368550816              1.472424                     5     0.341658000000002
368550816              3.189706                     5              0.342658
368550816              5.755349                     5     0.341658000000002
368550816              7.472631                     5              0.342658
368550816             10.038274                     5     0.341658000000002
368550816             11.755556                     5              0.342658
368550816             14.321199                     5     0.341658000000002
368550784             17.091783                     5                8.5655
368550784             17.091783                     5               12.8265
368550784             17.091783                     5               17.0875
368550784             17.091783                     5                21.348
368550784             17.091783                     5                 9.986
368550784             17.091783                     5               14.2465
368550784             17.091783                     5               18.5075
368550784             17.091783                     5               22.7685
368550784             15.868066                     5                10.696
368550784             15.868066                     5                14.957
368550784             15.868066                     5               19.2175
368550784             15.868066                     5               23.4785
368550784             15.868066                     5                7.8555
368550784             15.868066                     5               12.1165
368550784             15.868066                     5                16.377
368550784             15.868066                     5                20.638
368550784             14.644348                     5                8.5655
368550784             14.644348                     5               12.8265
368550784             14.644348                     5               17.0875
368550784             14.644348                     5                21.348
368550784             13.420631                     5                10.696
368550784             13.420631                     5                14.957
368550784             13.420631                     5               19.2175
368550784             13.420631                     5               23.4785
368550784             14.644348                     5                 9.986
368550784             14.644348                     5               14.2465
368550784             14.644348                     5               18.5075
368550784             14.644348                     5               22.7685
368550784             13.420631                     5                7.8555
368550784             13.420631                     5               12.1165
368550784             13.420631                     5                16.377
368550784             13.420631                     5                20.638
368550784             12.197085                     5                8.5655
368550784             12.197085                     5               12.8265
368550784             12.197085                     5               17.0875
368550784             12.197085                     5                21.348
368550784             10.973368                     5                10.696
368550784             10.973368                     5                14.957
368550784             10.973368                     5               19.2175
368550784             10.973368                     5               23.4785
368550784             12.197085                     5                 9.986
368550784             12.197085                     5               14.2465
368550784             12.197085                     5               18.5075
368550784             12.197085                     5               22.7685
368550784             10.973368                     5                7.8555
368550784             10.973368                     5               12.1165
368550784             10.973368                     5                16.377
368550784             10.973368                     5                20.638
368550784               9.74965                     5                8.5655
368550784               9.74965                     5               12.8265
368550784               9.74965                     5               17.0875
368550784               9.74965                     5                21.348
368550784              8.525933                     5                10.696
368550784              8.525933                     5                14.957
368550784              8.525933                     5               19.2175
368550784              8.525933                     5               23.4785
368550784               9.74965                     5                 9.986
368550784               9.74965                     5               14.2465
368550784               9.74965                     5               18.5075
368550784               9.74965                     5               22.7685
368550784              8.525933                     5                7.8555
368550784              8.525933                     5               12.1165
368550784              8.525933                     5                16.377
368550784              8.525933                     5                20.638
368550784              7.302216                     5                8.5655
368550784              7.302216                     5               12.8265
368550784              7.302216                     5               17.0875
368550784              7.302216                     5                21.348
368550784              6.078498                     5                10.696
368550784              6.078498                     5                14.957
368550784              6.078498                     5               19.2175
368550784              6.078498                     5               23.4785
368550784              7.302216                     5                 9.986
368550784              7.302216                     5               14.2465
368550784              7.302216                     5               18.5075
368550784              7.302216                     5               22.7685
368550784              6.078498                     5                7.8555
368550784              6.078498                     5               12.1165
368550784              6.078498                     5                16.377
368550784              6.078498                     5                20.638
368550784              4.854781                     5                8.5655
368550784              4.854781                     5               12.8265
368550784              4.854781                     5               17.0875
368550784              4.854781                     5                21.348
368550784              3.631235                     5                10.696
368550784              3.631235                     5                14.957
368550784              3.631235                     5               19.2175
368550784              3.631235                     5               23.4785
368550784              4.854781                     5                 9.986
368550784              4.854781                     5               14.2465
368550784              4.854781                     5               18.5075
368550784              4.854781                     5               22.7685
368550784              3.631235                     5                7.8555
368550784              3.631235                     5               12.1165
368550784              3.631235                     5                16.377
368550784              3.631235                     5                20.638
368550784              2.407518                     5                8.5655
368550784              2.407518                     5               12.8265
368550784              2.407518                     5               17.0875
368550784              2.407518                     5                21.348
368550784                1.1838                     5                10.696
368550784                1.1838                     5                14.957
368550784                1.1838                     5               19.2175
368550784                1.1838                     5               23.4785
368550784              2.407518                     5                 9.986
368550784              2.407518                     5               14.2465
368550784              2.407518                     5               18.5075
368550784              2.407518                     5               22.7685
368550784                1.1838                     5                7.8555
368550784                1.1838                     5               12.1165
368550784                1.1838                     5                16.377
368550784                1.1838                     5                20.638
368550816             15.865667                     5                6.7155
368550816              13.42303                     5                6.7155
368550816             10.975766                     5                6.7155
368550816              8.528332                     5                6.7155
368550816              6.080897                     5                6.7155
368550816              3.633634                     5                6.7155
368550816              1.181402                     5                6.7155
368550816              7.779501              0.573359             24.862342
368550816              6.409811              3.644709             24.697412
368550816              2.527216              4.392125             25.390062
368550816              6.355075              7.419275             23.948246
368550816             16.596097              1.767208             24.037846
368550816             16.120496              2.507331             25.498212
368550816             11.634022              3.208321             23.722647
368550816             11.179872              3.710433             25.146163
368550816             12.978516                9.7623             25.793545
368550816              5.839012              3.103927             28.148165
368550816              4.180978               3.44319              27.84748
368550816              1.431825              5.955767             26.513308
368550816              3.018956              6.281849             27.730336
368550816              6.023463              2.667484             26.725998
368550816               11.0048              4.453177             26.935563
368550816             11.864171              8.582546             26.895495
368550816             14.401592              8.966529             27.825234
368550816               7.49545              9.573653              29.13237
368550816               1.84502              3.375098             31.305211
368550816              0.632924              6.978738              30.76323
368550816              4.844968              7.848145             31.780417
368550816              2.745823              9.337561             29.934742
368550816              0.849248              9.458968             30.164627
368550816             12.410249              4.069324             32.296086
368550816             14.495984              4.742208             31.475899
368550816              9.232845               8.91153             32.408384
368550816              8.053528              9.644622             31.693075
368550816             10.618964               9.82878             32.832501
368550784             12.597799              6.832358             24.332153
368550784              0.405198              7.364209             25.696358
368550784             10.690867              7.483109             26.829851
368550784              7.957838              7.952455             25.582119
368550784              3.925169               9.48673             26.408709
368550784             16.372065              0.988051             25.210077
368550784             12.826197              1.424009             25.908384
368550784             12.935678              3.309149             27.110437
368550784             15.363239              3.508042             23.809616
368550784             13.212518              5.056185               23.8069
368550784             12.623342              7.891769             24.589457
368550784              1.428933               1.37248             27.370146
368550784               1.40383              2.697739             27.363957
368550784              4.392902              7.868477             29.778054
368550784              6.024806              8.524782             28.352945
368550784              2.593526              8.829598             29.480249
368550784             16.131098              2.109874             28.655797
368550784              7.005539               3.78461             27.498482
368550784              6.877462              6.892354             28.567061
368550784              8.682566              7.996773             28.489231
368550784             16.275761               8.90644             29.322827
368550784             12.298709              9.801425             27.418587
368550784              7.937462              2.416726             32.328215
368550784              9.334268              6.520229             33.089301
368550784              7.115894              7.660763             31.147478
368550784              0.625655              7.980306             31.670849
368550784              9.878952              8.541179             31.461451
368550784             13.732976              2.418894             32.644875
368550784             10.893268              2.682047             32.476848
368550784             12.491287              4.386802             32.064334
368550784             16.609676              4.412766               32.9619
368550784             16.990174              5.946383             30.633439
368550784              9.899608              8.493242             32.734386
300
Atoms. Timestep: 10
368550816      16.6041564592615                     5      34.5946627568244
368550816      16.6041564592615                     5      37.0546627568244
368550816      16.6041564592615                     5      39.5146627568244
368550816      16.6041564592615                     5      41.9746627568244
368550816      16.6041564592615                     5      44.4346627568244
368550816      16.6041564592615                     5      46.8946627568244
368550816      16.6041564592615                     5      49.3546627568244
368550816      1.61391945926146                     5      33.3646627568244
368550816      1.61391945926146                     5      35.8246627568244
368550816      1.61391945926146                     5      38.2846627568244
368550816      1.61391945926146                     5      40.7446627568244
368550816      1.61391945926146                     5      43.2046627568244
368550816      1.61391945926146                     5      45.6646627568244
368550816      1.61391945926146                     5      48.1246627568244
368550816     0.900212459261464                     5      34.5946627568244
368550816     0.900212459261464                     5      37.0546627568244
368550816     0.900212459261464                     5      39.5146627568244
368550816     0.900212459261464                     5      41.9746627568244
368550816     0.900212459261464                     5      44.4346627568244
368550816     0.900212459261464                     5      46.8946627568244
368550816     0.900212459261464                     5      49.3546627568244
368550816      3.04167545926146                     5      33.3646627568244
368550816      3.04167545926146                     5      35.8246627568244
368550816      3.04167545926146                     5      38.2846627568244
368550816      3.04167545926146                     5      40.7446627568244
368550816      3.04167545926146                     5      43.2046627568244
368550816      3.04167545926146                     5      45.6646627568244
368550816      3.04167545926146                     5      48.1246627568244
368550816      3.75538145926146                     5      34.5946627568244
368550816      3.75538145926146                     5      37.0546627568244
368550784      3.75538145926146                     5      39.5146627568244
368550784      3.75538145926146                     5      41.9746627568244
368550784      3.75538145926146                     5      44.4346627568244
368550784      3.75538145926146                     5      46.8946627568244
368550784      3.75538145926146                     5      49.3546627568244
368550784      5.89684445926147                     5      33.3646627568244
368550784      5.89684445926147                     5      35.8246627568244
368550784      5.89684445926147                     5      38.2846627568244
368550784      5.89684445926147                     5      40.7446627568244
368550784      5.89684445926147                     5      43.2046627568244
368550784      5.89684445926147                     5      45.6646627568244
368550784      5.89684445926147                     5      48.1246627568244
368550784      5.18313745926146                     5      34.5946627568244
368550784      5.18313745926146                     5      37.0546627568244
368550784      5.18313745926146                     5      39.5146627568244
368550784      5.18313745926146                     5      41.9746627568244
368550784      5.18313745926146                     5      44.4346627568244
368550784      5.18313745926146                     5      46.8946627568244
368550784      5.18313745926146                     5      49.3546627568244
368550784      7.32460045926146                     5      33.3646627568244
368550784      7.32460045926146                     5      35.8246627568244
368550784      7.32460045926146                     5      38.2846627568244
368550784      7.32460045926146                     5      40.7446627568244
368550784      7.32460045926146                     5      43.2046627568244
368550784      7.32460045926146                     5      45.6646627568244
368550784      7.32460045926146                     5      48.1246627568244
368550784      8.03830645926146                     5      34.5946627568244
368550784      8.03830645926146                     5      37.0546627568244
368550784      8.03830645926146                     5      39.5146627568244
368550784      8.03830645926146                     5      41.9746627568244
368550784      8.03830645926146                     5      44.4346627568244
368550784      8.03830645926146                     5      46.8946627568244
368550784      8.03830645926146                     5      49.3546627568244
368550784      10.1797694592615                     5      33.3646627568244
368550784      10.1797694592615                     5      35.8246627568244
368550784      10.1797694592615                     5      38.2846627568244
368550784      10.1797694592615                     5      40.7446627568244
368550784      10.1797694592615                     5      43.2046627568244
368550784      10.1797694592615                     5      45.6646627568244
368550784      10.1797694592615                     5      48.1246627568244
368550784      9.46606245926146                     5      34.5946627568244
368550784      9.46606245926146                     5      37.0546627568244
368550784      9.46606245926146                     5      39.5146627568244
368550784      9.46606245926146                     5      41.9746627568244
368550784      9.46606245926146                     5      44.4346627568244
368550784      9.46606245926146                     5      46.8946627568244
368550784      9.46606245926146                     5      49.3546627568244
368550784      11.6075254592615                     5      33.3646627568244
368550784      11.6075254592615                     5      35.8246627568244
368550784      11.6075254592615                     5      38.2846627568244
368550784      11.6075254592615                     5      40.7446627568244
368550784      11.6075254592615                     5      43.2046627568244
368550784      11.6075254592615                     5      45.6646627568244
368550784      11.6075254592615                     5      48.1246627568244
368550784      12.3212314592615                     5      34.5946627568244
368550784      12.3212314592615                     5      37.0546627568244
368550784      12.3212314592615                     5      39.5146627568244
368550784      12.3212314592615                     5      41.9746627568244
368550784      12.3212314592615                     5      44.4346627568244
368550784      12.3212314592615                     5      46.8946627568244
368550784      12.3212314592615                     5      49.3546627568244
368550784      14.4626944592615                     5      33.3646627568244
368550784      14.4626944592615                     5      35.8246627568244
368550784      14.4626944592615                     5      38.2846627568244