search structure

300 atoms
2  atom types

0   17.131700 xlo xhi
0   10.000000 ylo yhi
0   50.000000 zlo zhi

Atoms

1 2 16.606396 5.000000 34.594158
2 2 16.606396 5.000000 37.054158
3 2 16.606396 5.000000 39.514158
4 2 16.606396 5.000000 41.974158
5 2 16.606396 5.000000 44.434158
6 2 16.606396 5.000000 46.894158
7 2 16.606396 5.000000 49.354158
8 2 1.616159 5.000000 33.364158
9 2 1.616159 5.000000 35.824158
10 2 1.616159 5.000000 38.284158
11 2 1.616159 5.000000 40.744158
12 2 1.616159 5.000000 43.204158
13 2 1.616159 5.000000 45.664158
14 2 1.616159 5.000000 48.124158
15 2 0.902452 5.000000 34.594158
16 2 0.902452 5.000000 37.054158
17 2 0.902452 5.000000 39.514158
18 2 0.902452 5.000000 41.974158
19 2 0.902452 5.000000 44.434158
20 2 0.902452 5.000000 46.894158
21 2 0.902452 5.000000 49.354158
22 2 3.043915 5.000000 33.364158
23 2 3.043915 5.000000 35.824158
24 2 3.043915 5.000000 38.284158
25 2 3.043915 5.000000 40.744158
26 2 3.043915 5.000000 43.204158
27 2 3.043915 5.000000 45.664158
28 2 3.043915 5.000000 48.124158
29 2 3.757621 5.000000 34.594158
30 2 3.757621 5.000000 37.054158
31 1 3.757621 5.000000 39.514158
32 1 3.757621 5.000000 41.974158
33 1 3.757621 5.000000 44.434158
34 1 3.757621 5.000000 46.894158
35 1 3.757621 5.000000 49.354158
36 1 5.899084 5.000000 33.364158
37 1 5.899084 5.000000 35.824158
38 1 5.899084 5.000000 38.284158
39 1 5.899084 5.000000 40.744158
40 1 5.899084 5.000000 43.204158
41 1 5.899084 5.000000 45.664158
42 1 5.899084 5.000000 48.124158
43 1 5.185377 5.000000 34.594158
44 1 5.185377 5.000000 37.054158
45 1 5.185377 5.000000 39.514158
46 1 5.185377 5.000000 41.974158
47 1 5.185377 5.000000 44.434158
48 1 5.185377 5.000000 46.894158
49 1 5.185377 5.000000 49.354158
50 1 7.326840 5.000000 33.364158
51 1 7.326840 5.000000 35.824158
52 1 7.326840 5.000000 38.284158
53 1 7.326840 5.000000 40.744158
54 1 7.326840 5.000000 43.204158
55 1 7.326840 5.000000 45.664158
56 1 7.326840 5.000000 48.124158
57 1 8.040546 5.000000 34.594158
58 1 8.040546 5.000000 37.054158
59 1 8.040546 5.000000 39.514158
60 1 8.040546 5.000000 41.974158
61 1 8.040546 5.000000 44.434158
62 1 8.040546 5.000000 46.894158
63 1 8.040546 5.000000 49.354158
64 1 10.182009 5.000000 33.364158
65 1 10.182009 5.000000 35.824158
66 1 10.182009 5.000000 38.284158
67 1 10.182009 5.000000 40.744158
68 1 10.182009 5.000000 43.204158
69 1 10.182009 5.000000 45.664158
70 1 10.182009 5.000000 48.124158
71 1 9.468302 5.000000 34.594158
72 1 9.468302 5.000000 37.054158
73 1 9.468302 5.000000 39.514158
74 1 9.468302 5.000000 41.974158
75 1 9.468302 5.000000 44.434158
76 1 9.468302 5.000000 46.894158
77 1 9.468302 5.000000 49.354158
78 1 11.609765 5.000000 33.364158
79 1 11.609765 5.000000 35.824158
80 1 11.609765 5.000000 38.284158
81 1 11.609765 5.000000 40.744158
82 1 11.609765 5.000000 43.204158
83 1 11.609765 5.000000 45.664158
84 1 11.609765 5.000000 48.124158
85 1 12.323471 5.000000 34.594158
86 1 12.323471 5.000000 37.054158
87 1 12.323471 5.000000 39.514158
88 1 12.323471 5.000000 41.974158
89 1 12.323471 5.000000 44.434158
90 1 12.323471 5.000000 46.894158
91 1 12.323471 5.000000 49.354158
92 1 14.464934 5.000000 33.364158
93 1 14.464934 5.000000 35.824158
94 1 14.464934 5.000000 38.284158
95 1 14.464934 5.000000 40.744158
96 1 14.464934 5.000000 43.204158
97 1 14.464934 5.000000 45.664158
98 1 14.464934 5.000000 48.124158
99 1 13.751227 5.000000 34.594158
100 1 13.751227 5.000000 37.054158
101 1 13.751227 5.000000 39.514158
102 1 13.751227 5.000000 41.974158
103 1 13.751227 5.000000 44.434158
104 1 13.751227 5.000000 46.894158
105 1 13.751227 5.000000 49.354158
106 1 15.892690 5.000000 33.364158
107 1 15.892690 5.000000 35.824158
108 1 15.892690 5.000000 38.284158
109 1 15.892690 5.000000 40.744158
110 1 15.892690 5.000000 43.204158
111 1 15.892690 5.000000 45.664158
112 1 15.892690 5.000000 48.124158
113 2 16.036253 5.000000 50.341658
114 2 1.472424 5.000000 50.341658
115 2 3.189706 5.000000 50.342658
116 2 5.755349 5.000000 50.341658
117 2 7.472631 5.000000 50.342658
118 2 10.038274 5.000000 50.341658
119 2 11.755556 5.000000 50.342658
120 2 14.321199 5.000000 50.341658
121 1 -0.039917 5.000000 8.565500
122 1 -0.039917 5.000000 12.826500
123 1 -0.039917 5.000000 17.087500
124 1 -0.039917 5.000000 21.348000
125 1 -0.039917 5.000000 9.986000
126 1 -0.039917 5.000000 14.246500
127 1 -0.039917 5.000000 18.507500
128 1 -0.039917 5.000000 22.768500
129 1 15.868066 5.000000 10.696000
130 1 15.868066 5.000000 14.957000
131 1 15.868066 5.000000 19.217500
132 1 15.868066 5.000000 23.478500
133 1 15.868066 5.000000 7.855500
134 1 15.868066 5.000000 12.116500
135 1 15.868066 5.000000 16.377000
136 1 15.868066 5.000000 20.638000
137 1 14.644348 5.000000 8.565500
138 1 14.644348 5.000000 12.826500
139 1 14.644348 5.000000 17.087500
140 1 14.644348 5.000000 21.348000
141 1 13.420631 5.000000 10.696000
142 1 13.420631 5.000000 14.957000
143 1 13.420631 5.000000 19.217500
144 1 13.420631 5.000000 23.478500
145 1 14.644348 5.000000 9.986000
146 1 14.644348 5.000000 14.246500
147 1 14.644348 5.000000 18.507500
148 1 14.644348 5.000000 22.768500
149 1 13.420631 5.000000 7.855500
150 1 13.420631 5.000000 12.116500
151 1 13.420631 5.000000 16.377000
152 1 13.420631 5.000000 20.638000
153 1 12.197085 5.000000 8.565500
154 1 12.197085 5.000000 12.826500
155 1 12.197085 5.000000 17.087500
156 1 12.197085 5.000000 21.348000
157 1 10.973368 5.000000 10.696000
158 1 10.973368 5.000000 14.957000
159 1 10.973368 5.000000 19.217500
160 1 10.973368 5.000000 23.478500
161 1 12.197085 5.000000 9.986000
162 1 12.197085 5.000000 14.246500
163 1 12.197085 5.000000 18.507500
164 1 12.197085 5.000000 22.768500
165 1 10.973368 5.000000 7.855500
166 1 10.973368 5.000000 12.116500
167 1 10.973368 5.000000 16.377000
168 1 10.973368 5.000000 20.638000
169 1 9.749650 5.000000 8.565500
170 1 9.749650 5.000000 12.826500
171 1 9.749650 5.000000 17.087500
172 1 9.749650 5.000000 21.348000
173 1 8.525933 5.000000 10.696000
174 1 8.525933 5.000000 14.957000
175 1 8.525933 5.000000 19.217500
176 1 8.525933 5.000000 23.478500
177 1 9.749650 5.000000 9.986000
178 1 9.749650 5.000000 14.246500
179 1 9.749650 5.000000 18.507500
180 1 9.749650 5.000000 22.768500
181 1 8.525933 5.000000 7.855500
182 1 8.525933 5.000000 12.116500
183 1 8.525933 5.000000 16.377000
184 1 8.525933 5.000000 20.638000
185 1 7.302216 5.000000 8.565500
186 1 7.302216 5.000000 12.826500
187 1 7.302216 5.000000 17.087500
188 1 7.302216 5.000000 21.348000
189 1 6.078498 5.000000 10.696000
190 1 6.078498 5.000000 14.957000
191 1 6.078498 5.000000 19.217500
192 1 6.078498 5.000000 23.478500
193 1 7.302216 5.000000 9.986000
194 1 7.302216 5.000000 14.246500
195 1 7.302216 5.000000 18.507500
196 1 7.302216 5.000000 22.768500
197 1 6.078498 5.000000 7.855500
198 1 6.078498 5.000000 12.116500
199 1 6.078498 5.000000 16.377000
200 1 6.078498 5.000000 20.638000
201 1 4.854781 5.000000 8.565500
202 1 4.854781 5.000000 12.826500
203 1 4.854781 5.000000 17.087500
204 1 4.854781 5.000000 21.348000
205 1 3.631235 5.000000 10.696000
206 1 3.631235 5.000000 14.957000
207 1 3.631235 5.000000 19.217500
208 1 3.631235 5.000000 23.478500
209 1 4.854781 5.000000 9.986000
210 1 4.854781 5.000000 14.246500
211 1 4.854781 5.000000 18.507500
212 1 4.854781 5.000000 22.768500
213 1 3.631235 5.000000 7.855500
214 1 3.631235 5.000000 12.116500
215 1 3.631235 5.000000 16.377000
216 1 3.631235 5.000000 20.638000
217 1 2.407518 5.000000 8.565500
218 1 2.407518 5.000000 12.826500
219 1 2.407518 5.000000 17.087500
220 1 2.407518 5.000000 21.348000
221 1 1.183800 5.000000 10.696000
222 1 1.183800 5.000000 14.957000
223 1 1.183800 5.000000 19.217500
224 1 1.183800 5.000000 23.478500
225 1 2.407518 5.000000 9.986000
226 1 2.407518 5.000000 14.246500
227 1 2.407518 5.000000 18.507500
228 1 2.407518 5.000000 22.768500
229 1 1.183800 5.000000 7.855500
230 1 1.183800 5.000000 12.116500
231 1 1.183800 5.000000 16.377000
232 1 1.183800 5.000000 20.638000
233 2 15.865667 5.000000 6.715500
234 2 13.423030 5.000000 6.715500
235 2 10.975766 5.000000 6.715500
236 2 8.528332 5.000000 6.715500
237 2 6.080897 5.000000 6.715500
238 2 3.633634 5.000000 6.715500
239 2 1.181402 5.000000 6.715500
240 2 7.779501 0.573359 24.862342
241 2 6.409811 3.644709 24.697412
242 2 2.527216 4.392125 25.390062
243 2 6.355075 7.419275 23.948246
244 2 16.596097 1.767208 24.037846
245 2 16.120496 2.507331 25.498212
246 2 11.634022 3.208321 23.722647
247 2 11.179872 3.710433 25.146163
248 2 12.978516 9.762300 25.793545
249 2 5.839012 3.103927 28.148165
250 2 4.180978 3.443190 27.847480
251 2 1.431825 5.955767 26.513308
252 2 3.018956 6.281849 27.730336
253 2 6.023463 2.667484 26.725998
254 2 11.004800 4.453177 26.935563
255 2 11.864171 8.582546 26.895495
256 2 14.401592 8.966529 27.825234
257 2 7.495450 9.573653 29.132370
258 2 1.845020 3.375098 31.305211
259 2 0.632924 6.978738 30.763230
260 2 4.844968 7.848145 31.780417
261 2 2.745823 9.337561 29.934742
262 2 0.849248 9.458968 30.164627
263 2 12.410249 4.069324 32.296086
264 2 14.495984 4.742208 31.475899
265 2 9.232845 8.911530 32.408384
266 2 8.053528 9.644622 31.693075
267 2 10.618964 9.828780 32.832501
268 1 12.597799 6.832358 24.332153
269 1 0.405198 7.364209 25.696358
270 1 10.690867 7.483109 26.829851
271 1 7.957838 7.952455 25.582119
272 1 3.925169 9.486730 26.408709
273 1 16.372065 0.988051 25.210077
274 1 12.826197 1.424009 25.908384
275 1 12.935678 3.309149 27.110437
276 1 15.363239 3.508042 23.809616
277 1 13.212518 5.056185 23.806900
278 1 12.623342 7.891769 24.589457
279 1 1.428933 1.372480 27.370146
280 1 1.403830 2.697739 27.363957
281 1 4.392902 7.868477 29.778054
282 1 6.024806 8.524782 28.352945
283 1 2.593526 8.829598 29.480249
284 1 16.131098 2.109874 28.655797
285 1 7.005539 3.784610 27.498482
286 1 6.877462 6.892354 28.567061
287 1 8.682566 7.996773 28.489231
288 1 16.275761 8.906440 29.322827
289 1 12.298709 9.801425 27.418587
290 1 7.937462 2.416726 32.328215
291 1 9.334268 6.520229 33.089301
292 1 7.115894 7.660763 31.147478
293 1 0.625655 7.980306 31.670849
294 1 9.878952 8.541179 31.461451
295 1 13.732976 2.418894 32.644875
296 1 10.893268 2.682047 32.476848
297 1 12.491287 4.386802 32.064334
298 1 16.609676 4.412766 32.961900
299 1 16.990174 5.946383 30.633439
300 1 9.899608 8.493242 32.734386
