300
Atoms. Timestep: 0
119739296              4.174216                     5              35.26627
119739296              4.174216                     5              37.72627
119739296              4.174216                     5              40.18627
119739296              4.174216                     5              42.64627
119739296              4.174216                     5              45.10627
119739296              4.174216                     5              47.56627
119739296              4.174216                     5    0.0262699999999967
119739296              6.315678                     5              34.03627
119739296              6.315678                     5              36.49627
119739296              6.315678                     5              38.95627
119739296              6.315678                     5              41.41627
119739296              6.315678                     5              43.87627
119739296              6.315678                     5              46.33627
119739296              6.315678                     5              48.79627
119739296              5.601971                     5              35.26627
119739296              5.601971                     5              37.72627
119739296              5.601971                     5              40.18627
119739296              5.601971                     5              42.64627
119739296              5.601971                     5              45.10627
119739296              5.601971                     5              47.56627
119739296              5.601971                     5    0.0262699999999967
119739296              7.743434                     5              34.03627
119739296              7.743434                     5              36.49627
119739296              7.743434                     5              38.95627
119739296              7.743434                     5              41.41627
119739296              7.743434                     5              43.87627
119739296              7.743434                     5              46.33627
119739296              7.743434                     5              48.79627
119739296              8.457141                     5              35.26627
119739296              8.457141                     5              37.72627
119739264              8.457141                     5              40.18627
119739264              8.457141                     5              42.64627
119739264              8.457141                     5              45.10627
119739264              8.457141                     5              47.56627
119739264              8.457141                     5    0.0262699999999967
119739264             10.598603                     5              34.03627
119739264             10.598603                     5              36.49627
119739264             10.598603                     5              38.95627
119739264             10.598603                     5              41.41627
119739264             10.598603                     5              43.87627
119739264             10.598603                     5              46.33627
119739264             10.598603                     5              48.79627
119739264              9.884896                     5              35.26627
119739264              9.884896                     5              37.72627
119739264              9.884896                     5              40.18627
119739264              9.884896                     5              42.64627
119739264              9.884896                     5              45.10627
119739264              9.884896                     5              47.56627
119739264              9.884896                     5    0.0262699999999967
119739264             12.026359                     5              34.03627
119739264             12.026359                     5              36.49627
119739264             12.026359                     5              38.95627
119739264             12.026359                     5              41.41627
119739264             12.026359                     5              43.87627
119739264             12.026359                     5              46.33627
119739264             12.026359                     5              48.79627
119739264             12.740066                     5              35.26627
119739264             12.740066                     5              37.72627
119739264             12.740066                     5              40.18627
119739264             12.740066                     5              42.64627
119739264             12.740066                     5              45.10627
119739264             12.740066                     5              47.56627
119739264             12.740066                     5    0.0262699999999967
119739264             14.881528                     5              34.03627
119739264             14.881528                     5              36.49627
119739264             14.881528                     5              38.95627
119739264             14.881528                     5              41.41627
119739264             14.881528                     5              43.87627
119739264             14.881528                     5              46.33627
119739264             14.881528                     5              48.79627
119739264             14.167821                     5              35.26627
119739264             14.167821                     5              37.72627
119739264             14.167821                     5              40.18627
119739264             14.167821                     5              42.64627
119739264             14.167821                     5              45.10627
119739264             14.167821                     5              47.56627
119739264             14.167821                     5    0.0262699999999967
119739264             16.309284                     5              34.03627
119739264             16.309284                     5              36.49627
119739264             16.309284                     5              38.95627
119739264             16.309284                     5              41.41627
119739264             16.309284                     5              43.87627
119739264             16.309284                     5              46.33627
119739264             16.309284                     5              48.79627
119739264             17.022991                     5              35.26627
119739264             17.022991                     5              37.72627
119739264             17.022991                     5              40.18627
119739264             17.022991                     5              42.64627
119739264             17.022991                     5              45.10627
119739264             17.022991                     5              47.56627
119739264             17.022991                     5    0.0262699999999967
119739264              2.032753                     5              34.03627
119739264              2.032753                     5              36.49627
119739264              2.032753                     5              38.95627
119739264              2.032753                     5              41.41627
119739264              2.032753                     5              43.87627
119739264              2.032753                     5              46.33627
119739264              2.032753                     5              48.79627
119739264              1.319046                     5              35.26627
119739264              1.319046                     5              37.72627
119739264              1.319046                     5              40.18627
119739264              1.319046                     5              42.64627
119739264              1.319046                     5              45.10627
119739264              1.319046                     5              47.56627
119739264              1.319046                     5    0.0262699999999967
119739264              3.460509                     5              34.03627
119739264              3.460509                     5              36.49627
119739264              3.460509                     5              38.95627
119739264              3.460509                     5              41.41627
119739264              3.460509                     5              43.87627
119739264              3.460509                     5              46.33627
119739264              3.460509                     5              48.79627
119739296              3.604073                     5               1.01377
119739296              6.171943                     5               1.01377
119739296              7.889225                     5               1.01477
119739296             10.454868                     5               1.01377
119739296              12.17215                     5               1.01477
119739296             14.737793                     5               1.01377
119739296             16.455075                     5               1.01477
119739296              1.889018                     5               1.01377
119739264             17.091783                     5                8.5655
119739264             17.091783                     5               12.8265
119739264             17.091783                     5               17.0875
119739264             17.091783                     5                21.348
119739264             17.091783                     5                 9.986
119739264             17.091783                     5               14.2465
119739264             17.091783                     5               18.5075
119739264             17.091783                     5               22.7685
119739264             15.868066                     5                10.696
119739264             15.868066                     5                14.957
119739264             15.868066                     5               19.2175
119739264             15.868066                     5               23.4785
119739264             15.868066                     5                7.8555
119739264             15.868066                     5               12.1165
119739264             15.868066                     5                16.377
119739264             15.868066                     5                20.638
119739264             14.644348                     5                8.5655
119739264             14.644348                     5               12.8265
119739264             14.644348                     5               17.0875
119739264             14.644348                     5                21.348
119739264             13.420631                     5                10.696
119739264             13.420631                     5                14.957
119739264             13.420631                     5               19.2175
119739264             13.420631                     5               23.4785
119739264             14.644348                     5                 9.986
119739264             14.644348                     5               14.2465
119739264             14.644348                     5               18.5075
119739264             14.644348                     5               22.7685
119739264             13.420631                     5                7.8555
119739264             13.420631                     5               12.1165
119739264             13.420631                     5                16.377
119739264             13.420631                     5                20.638
119739264             12.197085                     5                8.5655
119739264             12.197085                     5               12.8265
119739264             12.197085                     5               17.0875
119739264             12.197085                     5                21.348
119739264             10.973368                     5                10.696
119739264             10.973368                     5                14.957
119739264             10.973368                     5               19.2175
119739264             10.973368                     5               23.4785
119739264             12.197085                     5                 9.986
119739264             12.197085                     5               14.2465
119739264             12.197085                     5               18.5075
119739264             12.197085                     5               22.7685
119739264             10.973368                     5                7.8555
119739264             10.973368                     5               12.1165
119739264             10.973368                     5                16.377
119739264             10.973368                     5                20.638
119739264               9.74965                     5                8.5655
119739264               9.74965                     5               12.8265
119739264               9.74965                     5               17.0875
119739264               9.74965                     5                21.348
119739264              8.525933                     5                10.696
119739264              8.525933                     5                14.957
119739264              8.525933                     5               19.2175
119739264              8.525933                     5               23.4785
119739264               9.74965                     5                 9.986
119739264               9.74965                     5               14.2465
119739264               9.74965                     5               18.5075
119739264               9.74965                     5               22.7685
119739264              8.525933                     5                7.8555
119739264              8.525933                     5               12.1165
119739264              8.525933                     5                16.377
119739264              8.525933                     5                20.638
119739264              7.302216                     5                8.5655
119739264              7.302216                     5               12.8265
119739264              7.302216                     5               17.0875
119739264              7.302216                     5                21.348
119739264              6.078498                     5                10.696
119739264              6.078498                     5                14.957
119739264              6.078498                     5               19.2175
119739264              6.078498                     5               23.4785
119739264              7.302216                     5                 9.986
119739264              7.302216                     5               14.2465
119739264              7.302216                     5               18.5075
119739264              7.302216                     5               22.7685
119739264              6.078498                     5                7.8555
119739264              6.078498                     5               12.1165
119739264              6.078498                     5                16.377
119739264              6.078498                     5                20.638
119739264              4.854781                     5                8.5655
119739264              4.854781                     5               12.8265
119739264              4.854781                     5               17.0875
119739264              4.854781                     5                21.348
119739264              3.631235                     5                10.696
119739264              3.631235                     5                14.957
119739264              3.631235                     5               19.2175
119739264              3.631235                     5               23.4785
119739264              4.854781                     5                 9.986
119739264              4.854781                     5               14.2465
119739264              4.854781                     5               18.5075
119739264              4.854781                     5               22.7685
119739264              3.631235                     5                7.8555
119739264              3.631235                     5               12.1165
119739264              3.631235                     5                16.377
119739264              3.631235                     5                20.638
119739264              2.407518                     5                8.5655
119739264              2.407518                     5               12.8265
119739264              2.407518                     5               17.0875
119739264              2.407518                     5                21.348
119739264                1.1838                     5                10.696
119739264                1.1838                     5                14.957
119739264                1.1838                     5               19.2175
119739264                1.1838                     5               23.4785
119739264              2.407518                     5                 9.986
119739264              2.407518                     5               14.2465
119739264              2.407518                     5               18.5075
119739264              2.407518                     5               22.7685
119739264                1.1838                     5                7.8555
119739264                1.1838                     5               12.1165
119739264                1.1838                     5                16.377
119739264                1.1838                     5                20.638
119739296             15.865667                     5                6.7155
119739296              13.42303                     5                6.7155
119739296             10.975766                     5                6.7155
119739296              8.528332                     5                6.7155
119739296              6.080897                     5                6.7155
119739296              3.633634                     5                6.7155
119739296              1.181402                     5                6.7155
119739296              6.837159              2.463427             25.381893
119739296             15.473512               3.28065             26.226256
119739296              5.653138              6.937633             26.739334
119739296             11.927535              7.360033             24.398523
119739296             10.053546              5.354931             26.068086
119739296              9.201676              5.570667              26.53891
119739296              0.474246              3.322807             25.232944
119739296              1.330025              4.646032             25.426082
119739296             12.439076              7.233575             25.629814
119739296              7.475783              7.085118             29.716021
119739296              4.747985              1.956454             30.183639
119739296              2.509119              2.090352             28.023087
119739296              1.295115              8.186492             27.867499
119739296               9.77454              9.991712             27.937278
119739296             11.685406              2.672751             25.055152
119739296              5.630336              5.255508             29.873008
119739296              5.264283              7.097998             28.427996
119739296             16.015525              9.325809             27.788514
119739296              0.342547              1.392065             33.510304
119739296              2.244282               3.88954              33.95977
119739296             12.780541              4.085628             33.036718
119739296              4.749516              5.747672             32.509173
119739296              2.504602              2.929914             29.609299
119739296              9.890146              3.253531              27.86267
119739296              9.369685              6.564746             29.385146
119739296              0.034276              6.763036             29.934274
119739296             12.107177              8.144055             31.753307
119739296             10.579205               6.17177             32.060544
119739264             10.099423              0.143764                  23.5
119739264              3.007609              3.181534             25.696612
119739264               2.17185              5.969378             24.191509
119739264              3.731558              6.212211             26.838948
119739264              5.139159               6.10752             24.326691
119739264              7.402875              1.070291             24.452723
119739264               5.30436              0.944825             27.482543
119739264              4.860882              1.911769             25.578728
119739264              6.956458              3.445264             24.257401
119739264             11.564323              5.453635             23.598038
119739264             12.259542              9.269675             26.582824
119739264             16.361108              0.492345             31.834095
119739264              4.733623              3.744202             31.560332
119739264             15.749698              2.375594             26.426233
119739264             14.115257              6.183109             29.536071
119739264              9.471819              9.315799             27.693307
119739264              7.269903              2.070352              27.62451
119739264              9.758485              5.177683             29.497234
119739264             12.074501              5.132714             30.018348
119739264              16.80673              5.864352             29.099378
119739264             10.095993              5.751409             28.077201
119739264              7.480192              8.038402             30.185488
119739264              7.261189              9.344215             31.021225
119739264              3.890302              9.749644             32.052578
119739264              5.660978              6.328982             32.885013
119739264              5.162307              7.538719             33.715761
119739264              5.606195              0.267196             32.286376
119739264             14.819265              1.898538              33.95977
119739264               2.11579               4.45534             30.983853
119739264              0.050363              3.833558             31.606027
119739264             14.194914              6.629437             33.901625
119739264             16.596238              8.073288             29.978134
119739264              7.419764              8.503375              33.95977
300
Atoms. Timestep: 10
119739296      4.17735291969666                     5      35.2685339260079
119739296      4.17735291969666                     5      37.7285339260079
119739296      4.17735291969666                     5      40.1885339260079
119739296      4.17735291969666                     5      42.6485339260079
119739296      4.17735291969666                     5      45.1085339260079
119739296      4.17735291969666                     5      47.5685339260079
119739296      4.17735291969666                     5    0.0285339260078564
119739296      6.31881491969666                     5      34.0385339260079
119739296      6.31881491969666                     5      36.4985339260079
119739296      6.31881491969666                     5      38.9585339260079
119739296      6.31881491969666                     5      41.4185339260079
119739296      6.31881491969666                     5      43.8785339260079
119739296      6.31881491969666                     5      46.3385339260079
119739296      6.31881491969666                     5      48.7985339260079
119739296      5.60510791969666                     5      35.2685339260079
119739296      5.60510791969666                     5      37.7285339260079
119739296      5.60510791969666                     5      40.1885339260079
119739296      5.60510791969666                     5      42.6485339260079
119739296      5.60510791969666                     5      45.1085339260079
119739296      5.60510791969666                     5      47.5685339260079
119739296      5.60510791969666                     5    0.0285339260078564
119739296      7.74657091969666                     5      34.0385339260079
119739296      7.74657091969666                     5      36.4985339260079
119739296      7.74657091969666                     5      38.9585339260079
119739296      7.74657091969666                     5      41.4185339260079
119739296      7.74657091969666                     5      43.8785339260079
119739296      7.74657091969666                     5      46.3385339260079
119739296      7.74657091969666                     5      48.7985339260079
119739296      8.46027791969666                     5      35.2685339260079
119739296      8.46027791969666                     5      37.7285339260079
119739264      8.46027791969666                     5      40.1885339260079
119739264      8.46027791969666                     5      42.6485339260079
119739264      8.46027791969666                     5      45.1085339260079
119739264      8.46027791969666                     5      47.5685339260079
119739264      8.46027791969666                     5    0.0285339260078564
119739264      10.6017399196967                     5      34.0385339260079
119739264      10.6017399196967                     5      36.4985339260079
119739264      10.6017399196967                     5      38.9585339260079
119739264      10.6017399196967                     5      41.4185339260079
119739264      10.6017399196967                     5      43.8785339260079
119739264      10.6017399196967                     5      46.3385339260079
119739264      10.6017399196967                     5      48.7985339260079
119739264      9.88803291969666                     5      35.2685339260079
119739264      9.88803291969666                     5      37.7285339260079
119739264      9.88803291969666                     5      40.1885339260079
119739264      9.88803291969666                     5      42.6485339260079
119739264      9.88803291969666                     5      45.1085339260079
119739264      9.88803291969666                     5      47.5685339260079
119739264      9.88803291969666                     5    0.0285339260078564
119739264      12.0294959196967                     5      34.0385339260079
119739264      12.0294959196967                     5      36.4985339260079
119739264      12.0294959196967                     5      38.9585339260079
119739264      12.0294959196967                     5      41.4185339260079
119739264      12.0294959196967                     5      43.8785339260079
119739264      12.0294959196967                     5      46.3385339260079
119739264      12.0294959196967                     5      48.7985339260079
119739264      12.7432029196967                     5      35.2685339260079
119739264      12.7432029196967                     5      37.7285339260079
119739264      12.7432029196967                     5      40.1885339260079
119739264      12.7432029196967                     5      42.6485339260079
119739264      12.7432029196967                     5      45.1085339260079
119739264      12.7432029196967                     5      47.5685339260079
119739264      12.7432029196967                     5    0.0285339260078564
119739264      14.8846649196967                     5      34.0385339260079
119739264      14.8846649196967                     5      36.4985339260079
119739264      14.8846649196967                     5      38.9585339260079
119739264      14.8846649196967                     5      41.4185339260079
119739264      14.8846649196967                     5      43.8785339260079
119739264      14.8846649196967                     5      46.3385339260079
119739264      14.8846649196967                     5      48.7985339260079
119739264      14.1709579196967                     5      35.2685339260079
119739264      14.1709579196967                     5      37.7285339260079
119739264      14.1709579196967                     5      40.1885339260079
119739264      14.1709579196967                     5      42.6485339260079
119739264      14.1709579196967                     5      45.1085339260079
119739264      14.1709579196967                     5      47.5685339260079
119739264      14.1709579196967                     5    0.0285339260078564
119739264      16.3124209196967                     5      34.0385339260079
119739264      16.3124209196967                     5      36.4985339260079
119739264      16.3124209196967                     5      38.9585339260079
119739264      16.3124209196967                     5      41.4185339260079
119739264      16.3124209196967                     5      43.8785339260079
119739264      16.3124209196967                     5      46.3385339260079
119739264      16.3124209196967                     5      48.7985339260079
119739264      17.0261279196967                     5      35.2685339260079
119739264      17.0261279196967                     5      37.7285339260079
119739264      17.0261279196967                     5      40.1885339260079
119739264      17.0261279196967                     5      42.6485339260079
119739264      17.0261279196967                     5      45.1085339260079
119739264      17.0261279196967                     5      47.5685339260079
119739264      17.0261279196967                     5    0.0285339260078564
119739264      2.03588991969666                     5      34.0385339260079
119739264      2.03588991969666                     5      36.4985339260079
119739264      2.03588991969666                     5      38.9585339260079