LAMMPS (30 Aug 2012)
units		metal
boundary	p p p
atom_style	atomic
read_data	struct.lammps
  orthogonal box = (0 0 0) to (17.1317 10 50)
  1 by 1 by 1 MPI processor grid
  300 atoms

pair_style      airebo 3.0
pair_coeff      * * CH.airebo C H

mass	1	12.0
mass	2	1.0

group		fixPosH id <> 1 120
120 atoms in group fixPosH
group		fixPosL id <> 121 239
119 atoms in group fixPosL
group		optPos  id <> 240 1000
61 atoms in group optPos
fix             0       fixPosH setforce NULL 0.0 NULL
fix             1       fixPosH aveforce 0.0 0.0 0.0
fix		2	fixPosL setforce 0.0 0.0 0.0
fix 		3	optPos	setforce NULL 0.0 NULL

neighbor        0.2 bin
neigh_modify	every 1 delay 0 check yes

timestep	0.002
thermo 		1
thermo_style    custom step  pe etotal lx ly lz 

dump		1 all xyz 10000000 dump.atom
dump_modify	1 format "%d  %20.15g  %20.15g  %20.15g" 
#fix 		8 all box/relax iso 0.0 
min_style	cg
minimize	1.0e-12 1.0e-12 10 10
Memory usage per processor = 3.26767 Mbytes
Step PotEng TotEng Lx Ly Lz 
       0   -994.73928   -994.73928      17.1317           10           50 
       1   -1041.5873   -1041.5873      17.1317           10           50 
       2    -1073.935    -1073.935      17.1317           10           50 
       3   -1100.9411   -1100.9411      17.1317           10           50 
       4   -1118.8499   -1118.8499      17.1317           10           50 
       5   -1132.5865   -1132.5865      17.1317           10           50 
       6   -1143.5216   -1143.5216      17.1317           10           50 
       7   -1152.1921   -1152.1921      17.1317           10           50 
       8   -1160.2504   -1160.2504      17.1317           10           50 
       9   -1166.1751   -1166.1751      17.1317           10           50 
      10   -1169.4375   -1169.4375      17.1317           10           50 
Loop time of 0.372002 on 1 procs for 10 steps with 300 atoms

Minimization stats:
  Stopping criterion = max force evaluations
  Energy initial, next-to-last, final = 
        -994.739279851     -1166.17513786     -1169.43745806
  Force two-norm initial, final = 545.085 10.1269
  Force max component initial, final = 483.632 3.24717
  Final line search alpha, max atom move = 0.0210042 0.0682043
  Iterations, force evaluations = 10 10

Pair  time (%) = 0.138694 (37.283)
Neigh time (%) = 0.229804 (61.7749)
Comm  time (%) = 0.00145078 (0.389992)
Outpt time (%) = 0.000152111 (0.0408898)
Other time (%) = 0.00190187 (0.511251)

Nlocal:    300 ave 300 max 300 min
Histogram: 1 0 0 0 0 0 0 0 0 0
Nghost:    2413 ave 2413 max 2413 min
Histogram: 1 0 0 0 0 0 0 0 0 0
Neighs:    0 ave 0 max 0 min
Histogram: 1 0 0 0 0 0 0 0 0 0
FullNghs:  45578 ave 45578 max 45578 min
Histogram: 1 0 0 0 0 0 0 0 0 0

Total # of neighbors = 45578
Ave neighs/atom = 151.927
Neighbor list builds = 10
Dangerous builds = 10
min_modify line quadratic

clear
