search structure

300 atoms
2  atom types

0   17.131700 xlo xhi
0   10.000000 ylo yhi
0   50.000000 zlo zhi

Atoms

1 2 4.174216 5.000000 35.266270
2 2 4.174216 5.000000 37.726270
3 2 4.174216 5.000000 40.186270
4 2 4.174216 5.000000 42.646270
5 2 4.174216 5.000000 45.106270
6 2 4.174216 5.000000 47.566270
7 2 4.174216 5.000000 50.026270
8 2 6.315678 5.000000 34.036270
9 2 6.315678 5.000000 36.496270
10 2 6.315678 5.000000 38.956270
11 2 6.315678 5.000000 41.416270
12 2 6.315678 5.000000 43.876270
13 2 6.315678 5.000000 46.336270
14 2 6.315678 5.000000 48.796270
15 2 5.601971 5.000000 35.266270
16 2 5.601971 5.000000 37.726270
17 2 5.601971 5.000000 40.186270
18 2 5.601971 5.000000 42.646270
19 2 5.601971 5.000000 45.106270
20 2 5.601971 5.000000 47.566270
21 2 5.601971 5.000000 50.026270
22 2 7.743434 5.000000 34.036270
23 2 7.743434 5.000000 36.496270
24 2 7.743434 5.000000 38.956270
25 2 7.743434 5.000000 41.416270
26 2 7.743434 5.000000 43.876270
27 2 7.743434 5.000000 46.336270
28 2 7.743434 5.000000 48.796270
29 2 8.457141 5.000000 35.266270
30 2 8.457141 5.000000 37.726270
31 1 8.457141 5.000000 40.186270
32 1 8.457141 5.000000 42.646270
33 1 8.457141 5.000000 45.106270
34 1 8.457141 5.000000 47.566270
35 1 8.457141 5.000000 50.026270
36 1 10.598603 5.000000 34.036270
37 1 10.598603 5.000000 36.496270
38 1 10.598603 5.000000 38.956270
39 1 10.598603 5.000000 41.416270
40 1 10.598603 5.000000 43.876270
41 1 10.598603 5.000000 46.336270
42 1 10.598603 5.000000 48.796270
43 1 9.884896 5.000000 35.266270
44 1 9.884896 5.000000 37.726270
45 1 9.884896 5.000000 40.186270
46 1 9.884896 5.000000 42.646270
47 1 9.884896 5.000000 45.106270
48 1 9.884896 5.000000 47.566270
49 1 9.884896 5.000000 50.026270
50 1 12.026359 5.000000 34.036270
51 1 12.026359 5.000000 36.496270
52 1 12.026359 5.000000 38.956270
53 1 12.026359 5.000000 41.416270
54 1 12.026359 5.000000 43.876270
55 1 12.026359 5.000000 46.336270
56 1 12.026359 5.000000 48.796270
57 1 12.740066 5.000000 35.266270
58 1 12.740066 5.000000 37.726270
59 1 12.740066 5.000000 40.186270
60 1 12.740066 5.000000 42.646270
61 1 12.740066 5.000000 45.106270
62 1 12.740066 5.000000 47.566270
63 1 12.740066 5.000000 50.026270
64 1 14.881528 5.000000 34.036270
65 1 14.881528 5.000000 36.496270
66 1 14.881528 5.000000 38.956270
67 1 14.881528 5.000000 41.416270
68 1 14.881528 5.000000 43.876270
69 1 14.881528 5.000000 46.336270
70 1 14.881528 5.000000 48.796270
71 1 14.167821 5.000000 35.266270
72 1 14.167821 5.000000 37.726270
73 1 14.167821 5.000000 40.186270
74 1 14.167821 5.000000 42.646270
75 1 14.167821 5.000000 45.106270
76 1 14.167821 5.000000 47.566270
77 1 14.167821 5.000000 50.026270
78 1 16.309284 5.000000 34.036270
79 1 16.309284 5.000000 36.496270
80 1 16.309284 5.000000 38.956270
81 1 16.309284 5.000000 41.416270
82 1 16.309284 5.000000 43.876270
83 1 16.309284 5.000000 46.336270
84 1 16.309284 5.000000 48.796270
85 1 17.022991 5.000000 35.266270
86 1 17.022991 5.000000 37.726270
87 1 17.022991 5.000000 40.186270
88 1 17.022991 5.000000 42.646270
89 1 17.022991 5.000000 45.106270
90 1 17.022991 5.000000 47.566270
91 1 17.022991 5.000000 50.026270
92 1 2.032753 5.000000 34.036270
93 1 2.032753 5.000000 36.496270
94 1 2.032753 5.000000 38.956270
95 1 2.032753 5.000000 41.416270
96 1 2.032753 5.000000 43.876270
97 1 2.032753 5.000000 46.336270
98 1 2.032753 5.000000 48.796270
99 1 1.319046 5.000000 35.266270
100 1 1.319046 5.000000 37.726270
101 1 1.319046 5.000000 40.186270
102 1 1.319046 5.000000 42.646270
103 1 1.319046 5.000000 45.106270
104 1 1.319046 5.000000 47.566270
105 1 1.319046 5.000000 50.026270
106 1 3.460509 5.000000 34.036270
107 1 3.460509 5.000000 36.496270
108 1 3.460509 5.000000 38.956270
109 1 3.460509 5.000000 41.416270
110 1 3.460509 5.000000 43.876270
111 1 3.460509 5.000000 46.336270
112 1 3.460509 5.000000 48.796270
113 2 3.604073 5.000000 51.013770
114 2 6.171943 5.000000 51.013770
115 2 7.889225 5.000000 51.014770
116 2 10.454868 5.000000 51.013770
117 2 12.172150 5.000000 51.014770
118 2 14.737793 5.000000 51.013770
119 2 16.455075 5.000000 51.014770
120 2 1.889018 5.000000 51.013770
121 1 -0.039917 5.000000 8.565500
122 1 -0.039917 5.000000 12.826500
123 1 -0.039917 5.000000 17.087500
124 1 -0.039917 5.000000 21.348000
125 1 -0.039917 5.000000 9.986000
126 1 -0.039917 5.000000 14.246500
127 1 -0.039917 5.000000 18.507500
128 1 -0.039917 5.000000 22.768500
129 1 15.868066 5.000000 10.696000
130 1 15.868066 5.000000 14.957000
131 1 15.868066 5.000000 19.217500
132 1 15.868066 5.000000 23.478500
133 1 15.868066 5.000000 7.855500
134 1 15.868066 5.000000 12.116500
135 1 15.868066 5.000000 16.377000
136 1 15.868066 5.000000 20.638000
137 1 14.644348 5.000000 8.565500
138 1 14.644348 5.000000 12.826500
139 1 14.644348 5.000000 17.087500
140 1 14.644348 5.000000 21.348000
141 1 13.420631 5.000000 10.696000
142 1 13.420631 5.000000 14.957000
143 1 13.420631 5.000000 19.217500
144 1 13.420631 5.000000 23.478500
145 1 14.644348 5.000000 9.986000
146 1 14.644348 5.000000 14.246500
147 1 14.644348 5.000000 18.507500
148 1 14.644348 5.000000 22.768500
149 1 13.420631 5.000000 7.855500
150 1 13.420631 5.000000 12.116500
151 1 13.420631 5.000000 16.377000
152 1 13.420631 5.000000 20.638000
153 1 12.197085 5.000000 8.565500
154 1 12.197085 5.000000 12.826500
155 1 12.197085 5.000000 17.087500
156 1 12.197085 5.000000 21.348000
157 1 10.973368 5.000000 10.696000
158 1 10.973368 5.000000 14.957000
159 1 10.973368 5.000000 19.217500
160 1 10.973368 5.000000 23.478500
161 1 12.197085 5.000000 9.986000
162 1 12.197085 5.000000 14.246500
163 1 12.197085 5.000000 18.507500
164 1 12.197085 5.000000 22.768500
165 1 10.973368 5.000000 7.855500
166 1 10.973368 5.000000 12.116500
167 1 10.973368 5.000000 16.377000
168 1 10.973368 5.000000 20.638000
169 1 9.749650 5.000000 8.565500
170 1 9.749650 5.000000 12.826500
171 1 9.749650 5.000000 17.087500
172 1 9.749650 5.000000 21.348000
173 1 8.525933 5.000000 10.696000
174 1 8.525933 5.000000 14.957000
175 1 8.525933 5.000000 19.217500
176 1 8.525933 5.000000 23.478500
177 1 9.749650 5.000000 9.986000
178 1 9.749650 5.000000 14.246500
179 1 9.749650 5.000000 18.507500
180 1 9.749650 5.000000 22.768500
181 1 8.525933 5.000000 7.855500
182 1 8.525933 5.000000 12.116500
183 1 8.525933 5.000000 16.377000
184 1 8.525933 5.000000 20.638000
185 1 7.302216 5.000000 8.565500
186 1 7.302216 5.000000 12.826500
187 1 7.302216 5.000000 17.087500
188 1 7.302216 5.000000 21.348000
189 1 6.078498 5.000000 10.696000
190 1 6.078498 5.000000 14.957000
191 1 6.078498 5.000000 19.217500
192 1 6.078498 5.000000 23.478500
193 1 7.302216 5.000000 9.986000
194 1 7.302216 5.000000 14.246500
195 1 7.302216 5.000000 18.507500
196 1 7.302216 5.000000 22.768500
197 1 6.078498 5.000000 7.855500
198 1 6.078498 5.000000 12.116500
199 1 6.078498 5.000000 16.377000
200 1 6.078498 5.000000 20.638000
201 1 4.854781 5.000000 8.565500
202 1 4.854781 5.000000 12.826500
203 1 4.854781 5.000000 17.087500
204 1 4.854781 5.000000 21.348000
205 1 3.631235 5.000000 10.696000
206 1 3.631235 5.000000 14.957000
207 1 3.631235 5.000000 19.217500
208 1 3.631235 5.000000 23.478500
209 1 4.854781 5.000000 9.986000
210 1 4.854781 5.000000 14.246500
211 1 4.854781 5.000000 18.507500
212 1 4.854781 5.000000 22.768500
213 1 3.631235 5.000000 7.855500
214 1 3.631235 5.000000 12.116500
215 1 3.631235 5.000000 16.377000
216 1 3.631235 5.000000 20.638000
217 1 2.407518 5.000000 8.565500
218 1 2.407518 5.000000 12.826500
219 1 2.407518 5.000000 17.087500
220 1 2.407518 5.000000 21.348000
221 1 1.183800 5.000000 10.696000
222 1 1.183800 5.000000 14.957000
223 1 1.183800 5.000000 19.217500
224 1 1.183800 5.000000 23.478500
225 1 2.407518 5.000000 9.986000
226 1 2.407518 5.000000 14.246500
227 1 2.407518 5.000000 18.507500
228 1 2.407518 5.000000 22.768500
229 1 1.183800 5.000000 7.855500
230 1 1.183800 5.000000 12.116500
231 1 1.183800 5.000000 16.377000
232 1 1.183800 5.000000 20.638000
233 2 15.865667 5.000000 6.715500
234 2 13.423030 5.000000 6.715500
235 2 10.975766 5.000000 6.715500
236 2 8.528332 5.000000 6.715500
237 2 6.080897 5.000000 6.715500
238 2 3.633634 5.000000 6.715500
239 2 1.181402 5.000000 6.715500
240 2 6.837159 2.463427 25.381893
241 2 15.473512 3.280650 26.226256
242 2 5.653138 6.937633 26.739334
243 2 11.927535 7.360033 24.398523
244 2 10.053546 5.354931 26.068086
245 2 9.201676 5.570667 26.538910
246 2 0.474246 3.322807 25.232944
247 2 1.330025 4.646032 25.426082
248 2 12.439076 7.233575 25.629814
249 2 7.475783 7.085118 29.716021
250 2 4.747985 1.956454 30.183639
251 2 2.509119 2.090352 28.023087
252 2 1.295115 8.186492 27.867499
253 2 9.774540 9.991712 27.937278
254 2 11.685406 2.672751 25.055152
255 2 5.630336 5.255508 29.873008
256 2 5.264283 7.097998 28.427996
257 2 16.015525 9.325809 27.788514
258 2 0.342547 1.392065 33.510304
259 2 2.244282 3.889540 33.959770
260 2 12.780541 4.085628 33.036718
261 2 4.749516 5.747672 32.509173
262 2 2.504602 2.929914 29.609299
263 2 9.890146 3.253531 27.862670
264 2 9.369685 6.564746 29.385146
265 2 0.034276 6.763036 29.934274
266 2 12.107177 8.144055 31.753307
267 2 10.579205 6.171770 32.060544
268 1 10.099423 0.143764 23.500000
269 1 3.007609 3.181534 25.696612
270 1 2.171850 5.969378 24.191509
271 1 3.731558 6.212211 26.838948
272 1 5.139159 6.107520 24.326691
273 1 7.402875 1.070291 24.452723
274 1 5.304360 0.944825 27.482543
275 1 4.860882 1.911769 25.578728
276 1 6.956458 3.445264 24.257401
277 1 11.564323 5.453635 23.598038
278 1 12.259542 9.269675 26.582824
279 1 16.361108 0.492345 31.834095
280 1 4.733623 3.744202 31.560332
281 1 15.749698 2.375594 26.426233
282 1 14.115257 6.183109 29.536071
283 1 9.471819 9.315799 27.693307
284 1 7.269903 2.070352 27.624510
285 1 9.758485 5.177683 29.497234
286 1 12.074501 5.132714 30.018348
287 1 16.806730 5.864352 29.099378
288 1 10.095993 5.751409 28.077201
289 1 7.480192 8.038402 30.185488
290 1 7.261189 9.344215 31.021225
291 1 3.890302 9.749644 32.052578
292 1 5.660978 6.328982 32.885013
293 1 5.162307 7.538719 33.715761
294 1 5.606195 0.267196 32.286376
295 1 14.819265 1.898538 33.959770
296 1 2.115790 4.455340 30.983853
297 1 0.050363 3.833558 31.606027
298 1 14.194914 6.629437 33.901625
299 1 16.596238 8.073288 29.978134
300 1 7.419764 8.503375 33.959770
