300
Atoms. Timestep: 0
346256288              15.19992                     5               34.3065
346256288              15.19992                     5               36.7665
346256288              15.19992                     5               39.2265
346256288              15.19992                     5               41.6865
346256288              15.19992                     5               44.1465
346256288              15.19992                     5               46.6065
346256288              15.19992                     5               49.0665
346256288              0.209682                     5               33.0765
346256288              0.209682                     5               35.5365
346256288              0.209682                     5               37.9965
346256288              0.209682                     5               40.4565
346256288              0.209682                     5               42.9165
346256288              0.209682                     5               45.3765
346256288              0.209682                     5               47.8365
346256288             16.627676                     5               34.3065
346256288             16.627676                     5               36.7665
346256288             16.627676                     5               39.2265
346256288             16.627676                     5               41.6865
346256288             16.627676                     5               44.1465
346256288             16.627676                     5               46.6065
346256288             16.627676                     5               49.0665
346256288              1.637438                     5               33.0765
346256288              1.637438                     5               35.5365
346256288              1.637438                     5               37.9965
346256288              1.637438                     5               40.4565
346256288              1.637438                     5               42.9165
346256288              1.637438                     5               45.3765
346256288              1.637438                     5               47.8365
346256288              2.351145                     5               34.3065
346256288              2.351145                     5               36.7665
346256256              2.351145                     5               39.2265
346256256              2.351145                     5               41.6865
346256256              2.351145                     5               44.1465
346256256              2.351145                     5               46.6065
346256256              2.351145                     5               49.0665
346256256              4.492607                     5               33.0765
346256256              4.492607                     5               35.5365
346256256              4.492607                     5               37.9965
346256256              4.492607                     5               40.4565
346256256              4.492607                     5               42.9165
346256256              4.492607                     5               45.3765
346256256              4.492607                     5               47.8365
346256256              3.778901                     5               34.3065
346256256              3.778901                     5               36.7665
346256256              3.778901                     5               39.2265
346256256              3.778901                     5               41.6865
346256256              3.778901                     5               44.1465
346256256              3.778901                     5               46.6065
346256256              3.778901                     5               49.0665
346256256              5.920363                     5               33.0765
346256256              5.920363                     5               35.5365
346256256              5.920363                     5               37.9965
346256256              5.920363                     5               40.4565
346256256              5.920363                     5               42.9165
346256256              5.920363                     5               45.3765
346256256              5.920363                     5               47.8365
346256256               6.63407                     5               34.3065
346256256               6.63407                     5               36.7665
346256256               6.63407                     5               39.2265
346256256               6.63407                     5               41.6865
346256256               6.63407                     5               44.1465
346256256               6.63407                     5               46.6065
346256256               6.63407                     5               49.0665
346256256              8.775532                     5               33.0765
346256256              8.775532                     5               35.5365
346256256              8.775532                     5               37.9965
346256256              8.775532                     5               40.4565
346256256              8.775532                     5               42.9165
346256256              8.775532                     5               45.3765
346256256              8.775532                     5               47.8365
346256256              8.061826                     5               34.3065
346256256              8.061826                     5               36.7665
346256256              8.061826                     5               39.2265
346256256              8.061826                     5               41.6865
346256256              8.061826                     5               44.1465
346256256              8.061826                     5               46.6065
346256256              8.061826                     5               49.0665
346256256             10.203288                     5               33.0765
346256256             10.203288                     5               35.5365
346256256             10.203288                     5               37.9965
346256256             10.203288                     5               40.4565
346256256             10.203288                     5               42.9165
346256256             10.203288                     5               45.3765
346256256             10.203288                     5               47.8365
346256256             10.916995                     5               34.3065
346256256             10.916995                     5               36.7665
346256256             10.916995                     5               39.2265
346256256             10.916995                     5               41.6865
346256256             10.916995                     5               44.1465
346256256             10.916995                     5               46.6065
346256256             10.916995                     5               49.0665
346256256             13.058457                     5               33.0765
346256256             13.058457                     5               35.5365
346256256             13.058457                     5               37.9965
346256256             13.058457                     5               40.4565
346256256             13.058457                     5               42.9165
346256256             13.058457                     5               45.3765
346256256             13.058457                     5               47.8365
346256256             12.344751                     5               34.3065
346256256             12.344751                     5               36.7665
346256256             12.344751                     5               39.2265
346256256             12.344751                     5               41.6865
346256256             12.344751                     5               44.1465
346256256             12.344751                     5               46.6065
346256256             12.344751                     5               49.0665
346256256             14.486213                     5               33.0765
346256256             14.486213                     5               35.5365
346256256             14.486213                     5               37.9965
346256256             14.486213                     5               40.4565
346256256             14.486213                     5               42.9165
346256256             14.486213                     5               45.3765
346256256             14.486213                     5               47.8365
346256288             14.629777                     5     0.054000000000002
346256288              0.065947                     5     0.054000000000002
346256288              1.783229                     5    0.0549999999999997
346256288              4.348872                     5     0.054000000000002
346256288              6.066154                     5    0.0549999999999997
346256288              8.631797                     5     0.054000000000002
346256288             10.349079                     5    0.0549999999999997
346256288             12.914722                     5     0.054000000000002
346256256             17.091783                     5                8.5655
346256256             17.091783                     5               12.8265
346256256             17.091783                     5               17.0875
346256256             17.091783                     5                21.348
346256256             17.091783                     5                 9.986
346256256             17.091783                     5               14.2465
346256256             17.091783                     5               18.5075
346256256             17.091783                     5               22.7685
346256256             15.868066                     5                10.696
346256256             15.868066                     5                14.957
346256256             15.868066                     5               19.2175
346256256             15.868066                     5               23.4785
346256256             15.868066                     5                7.8555
346256256             15.868066                     5               12.1165
346256256             15.868066                     5                16.377
346256256             15.868066                     5                20.638
346256256             14.644348                     5                8.5655
346256256             14.644348                     5               12.8265
346256256             14.644348                     5               17.0875
346256256             14.644348                     5                21.348
346256256             13.420631                     5                10.696
346256256             13.420631                     5                14.957
346256256             13.420631                     5               19.2175
346256256             13.420631                     5               23.4785
346256256             14.644348                     5                 9.986
346256256             14.644348                     5               14.2465
346256256             14.644348                     5               18.5075
346256256             14.644348                     5               22.7685
346256256             13.420631                     5                7.8555
346256256             13.420631                     5               12.1165
346256256             13.420631                     5                16.377
346256256             13.420631                     5                20.638
346256256             12.197085                     5                8.5655
346256256             12.197085                     5               12.8265
346256256             12.197085                     5               17.0875
346256256             12.197085                     5                21.348
346256256             10.973368                     5                10.696
346256256             10.973368                     5                14.957
346256256             10.973368                     5               19.2175
346256256             10.973368                     5               23.4785
346256256             12.197085                     5                 9.986
346256256             12.197085                     5               14.2465
346256256             12.197085                     5               18.5075
346256256             12.197085                     5               22.7685
346256256             10.973368                     5                7.8555
346256256             10.973368                     5               12.1165
346256256             10.973368                     5                16.377
346256256             10.973368                     5                20.638
346256256               9.74965                     5                8.5655
346256256               9.74965                     5               12.8265
346256256               9.74965                     5               17.0875
346256256               9.74965                     5                21.348
346256256              8.525933                     5                10.696
346256256              8.525933                     5                14.957
346256256              8.525933                     5               19.2175
346256256              8.525933                     5               23.4785
346256256               9.74965                     5                 9.986
346256256               9.74965                     5               14.2465
346256256               9.74965                     5               18.5075
346256256               9.74965                     5               22.7685
346256256              8.525933                     5                7.8555
346256256              8.525933                     5               12.1165
346256256              8.525933                     5                16.377
346256256              8.525933                     5                20.638
346256256              7.302216                     5                8.5655
346256256              7.302216                     5               12.8265
346256256              7.302216                     5               17.0875
346256256              7.302216                     5                21.348
346256256              6.078498                     5                10.696
346256256              6.078498                     5                14.957
346256256              6.078498                     5               19.2175
346256256              6.078498                     5               23.4785
346256256              7.302216                     5                 9.986
346256256              7.302216                     5               14.2465
346256256              7.302216                     5               18.5075
346256256              7.302216                     5               22.7685
346256256              6.078498                     5                7.8555
346256256              6.078498                     5               12.1165
346256256              6.078498                     5                16.377
346256256              6.078498                     5                20.638
346256256              4.854781                     5                8.5655
346256256              4.854781                     5               12.8265
346256256              4.854781                     5               17.0875
346256256              4.854781                     5                21.348
346256256              3.631235                     5                10.696
346256256              3.631235                     5                14.957
346256256              3.631235                     5               19.2175
346256256              3.631235                     5               23.4785
346256256              4.854781                     5                 9.986
346256256              4.854781                     5               14.2465
346256256              4.854781                     5               18.5075
346256256              4.854781                     5               22.7685
346256256              3.631235                     5                7.8555
346256256              3.631235                     5               12.1165
346256256              3.631235                     5                16.377
346256256              3.631235                     5                20.638
346256256              2.407518                     5                8.5655
346256256              2.407518                     5               12.8265
346256256              2.407518                     5               17.0875
346256256              2.407518                     5                21.348
346256256                1.1838                     5                10.696
346256256                1.1838                     5                14.957
346256256                1.1838                     5               19.2175
346256256                1.1838                     5               23.4785
346256256              2.407518                     5                 9.986
346256256              2.407518                     5               14.2465
346256256              2.407518                     5               18.5075
346256256              2.407518                     5               22.7685
346256256                1.1838                     5                7.8555
346256256                1.1838                     5               12.1165
346256256                1.1838                     5                16.377
346256256                1.1838                     5                20.638
346256288             15.865667                     5                6.7155
346256288              13.42303                     5                6.7155
346256288             10.975766                     5                6.7155
346256288              8.528332                     5                6.7155
346256288              6.080897                     5                6.7155
346256288              3.633634                     5                6.7155
346256288              1.181402                     5                6.7155
346256288              10.85536              2.148138             28.319891
346256288              9.170487              2.823354                  23.5
346256288             14.154366              3.379869             27.033054
346256288              6.853883              6.614597             23.922685
346256288             11.134823              2.462562             25.247463
346256288              0.603475              0.822478             26.060232
346256288             11.297253              3.787282             24.718512
346256288             11.345062               5.17017                  23.5
346256288              5.973463              3.629966             27.754716
346256288              5.864404              4.235986             29.274611
346256288              9.459502              8.217035             28.520104
346256288             10.047178              0.541839             24.297483
346256288              5.845597              8.154845             30.319343
346256288              1.527451              9.846541             30.762906
346256288              2.609951              2.228393             25.810987
346256288              8.219329              4.545562             28.253113
346256288              8.284053               9.26563             26.493167
346256288              4.259929              1.047452             28.742085
346256288               6.44104                0.4983             31.377037
346256288             16.944309              1.875113             28.871455
346256288             16.910342              4.904186             31.596233
346256288               6.45901              4.680635             29.679125
346256288              1.475468              0.401897             32.345303
346256288              5.844508              0.221343             32.575455
346256288              2.254417              1.698164                    33
346256288             13.397258              6.309588             31.896503
346256288              5.885586               4.85698             30.518134
346256288              8.918276              6.610063             31.927222
346256256              0.864697               6.85834             24.622798
346256256              1.274394              5.315841             25.545575
346256256             16.773237              5.548915             24.883053
346256256             13.237799              5.422743             25.194873
346256256              0.662338              9.185954              25.18567
346256256               10.4932              9.839045             23.508765
346256256              15.56177              7.912582             25.353659
346256256             10.660592               8.38639               24.3002
346256256             11.012148              4.913247             24.584591
346256256             14.267726              9.046295             23.735936
346256256              6.746279              2.190477             24.723072
346256256              3.872185              6.371943               27.3729
346256256              4.937068              6.057378             29.490039
346256256             12.401493              6.709804             26.219066
346256256             10.381986              1.210806             26.329238
346256256             15.803859              2.696874             29.803241
346256256              8.171396               8.71396             26.653362
346256256             14.123048              1.973516                  23.5
346256256              5.514011              4.361145             24.872549
346256256             15.392481              2.326698             26.079779
346256256               0.86685              0.771255             27.936483
346256256             17.021146              9.994449             26.629668
346256256              7.013411              7.772386             30.326004
346256256             13.916432               2.86417             30.786354
346256256             11.038903              3.638685             31.698789
346256256             16.206018              7.154027             31.871474
346256256             13.865116              9.445946                    33
346256256              0.203178              2.922812             30.550083
346256256              7.824343              1.026192                    33
346256256             12.099539              9.811618                    33
346256256              3.628509              4.416947             29.224497
346256256             13.388539               3.64686             32.580652
346256256              1.317659              9.037103             31.513411
300
Atoms. Timestep: 10
346256288      15.1978537888136                     5      34.3060702084192
346256288      15.1978537888136                     5      36.7660702084192
346256288      15.1978537888136                     5      39.2260702084192
346256288      15.1978537888136                     5      41.6860702084192
346256288      15.1978537888136                     5      44.1460702084192
346256288      15.1978537888136                     5      46.6060702084192
346256288      15.1978537888136                     5      49.0660702084192
346256288     0.207615788813613                     5      33.0760702084192
346256288     0.207615788813613                     5      35.5360702084192
346256288     0.207615788813613                     5      37.9960702084192
346256288     0.207615788813613                     5      40.4560702084192
346256288     0.207615788813613                     5      42.9160702084192
346256288     0.207615788813613                     5      45.3760702084192
346256288     0.207615788813613                     5      47.8360702084192
346256288      16.6256097888136                     5      34.3060702084192
346256288      16.6256097888136                     5      36.7660702084192
346256288      16.6256097888136                     5      39.2260702084192
346256288      16.6256097888136                     5      41.6860702084192
346256288      16.6256097888136                     5      44.1460702084192
346256288      16.6256097888136                     5      46.6060702084192
346256288      16.6256097888136                     5      49.0660702084192
346256288      1.63537178881361                     5      33.0760702084192
346256288      1.63537178881361                     5      35.5360702084192
346256288      1.63537178881361                     5      37.9960702084192
346256288      1.63537178881361                     5      40.4560702084192
346256288      1.63537178881361                     5      42.9160702084192
346256288      1.63537178881361                     5      45.3760702084192
346256288      1.63537178881361                     5      47.8360702084192
346256288      2.34907878881361                     5      34.3060702084192
346256288      2.34907878881361                     5      36.7660702084192
346256256      2.34907878881361                     5      39.2260702084192
346256256      2.34907878881361                     5      41.6860702084192
346256256      2.34907878881361                     5      44.1460702084192
346256256      2.34907878881361                     5      46.6060702084192
346256256      2.34907878881361                     5      49.0660702084192
346256256      4.49054078881361                     5      33.0760702084192
346256256      4.49054078881361                     5      35.5360702084192
346256256      4.49054078881361                     5      37.9960702084192
346256256      4.49054078881361                     5      40.4560702084192
346256256      4.49054078881361                     5      42.9160702084192
346256256      4.49054078881361                     5      45.3760702084192
346256256      4.49054078881361                     5      47.8360702084192
346256256      3.77683478881361                     5      34.3060702084192
346256256      3.77683478881361                     5      36.7660702084192
346256256      3.77683478881361                     5      39.2260702084192
346256256      3.77683478881361                     5      41.6860702084192
346256256      3.77683478881361                     5      44.1460702084192
346256256      3.77683478881361                     5      46.6060702084192
346256256      3.77683478881361                     5      49.0660702084192
346256256      5.91829678881361                     5      33.0760702084192
346256256      5.91829678881361                     5      35.5360702084192
346256256      5.91829678881361                     5      37.9960702084192
346256256      5.91829678881361                     5      40.4560702084192
346256256      5.91829678881361                     5      42.9160702084192
346256256      5.91829678881361                     5      45.3760702084192
346256256      5.91829678881361                     5      47.8360702084192
346256256      6.63200378881361                     5      34.3060702084192
346256256      6.63200378881361                     5      36.7660702084192
346256256      6.63200378881361                     5      39.2260702084192
346256256      6.63200378881361                     5      41.6860702084192
346256256      6.63200378881361                     5      44.1460702084192
346256256      6.63200378881361                     5      46.6060702084192
346256256      6.63200378881361                     5      49.0660702084192
346256256      8.77346578881362                     5      33.0760702084192
346256256      8.77346578881362                     5      35.5360702084192
346256256      8.77346578881362                     5      37.9960702084192
346256256      8.77346578881362                     5      40.4560702084192
346256256      8.77346578881362                     5      42.9160702084192
346256256      8.77346578881362                     5      45.3760702084192
346256256      8.77346578881362                     5      47.8360702084192
346256256      8.05975978881361                     5      34.3060702084192
346256256      8.05975978881361                     5      36.7660702084192
346256256      8.05975978881361                     5      39.2260702084192
346256256      8.05975978881361                     5      41.6860702084192
346256256      8.05975978881361                     5      44.1460702084192
346256256      8.05975978881361                     5      46.6060702084192
346256256      8.05975978881361                     5      49.0660702084192
346256256      10.2012217888136                     5      33.0760702084192
346256256      10.2012217888136                     5      35.5360702084192
346256256      10.2012217888136                     5      37.9960702084192
346256256      10.2012217888136                     5      40.4560702084192
346256256      10.2012217888136                     5      42.9160702084192
346256256      10.2012217888136                     5      45.3760702084192
346256256      10.2012217888136                     5      47.8360702084192
346256256      10.9149287888136                     5      34.3060702084192
346256256      10.9149287888136                     5      36.7660702084192
346256256      10.9149287888136                     5      39.2260702084192
346256256      10.9149287888136                     5      41.6860702084192
346256256      10.9149287888136                     5      44.1460702084192
346256256      10.9149287888136                     5      46.6060702084192
346256256      10.9149287888136                     5      49.0660702084192
346256256      13.0563907888136                     5      33.0760702084192
346256256      13.0563907888136                     5      35.5360702084192
346256256      13.0563907888136                     5      37.9960702084192