search structure

300 atoms
2  atom types

0   17.131700 xlo xhi
0   10.000000 ylo yhi
0   50.000000 zlo zhi

Atoms

1 2 15.199920 5.000000 34.306500
2 2 15.199920 5.000000 36.766500
3 2 15.199920 5.000000 39.226500
4 2 15.199920 5.000000 41.686500
5 2 15.199920 5.000000 44.146500
6 2 15.199920 5.000000 46.606500
7 2 15.199920 5.000000 49.066500
8 2 0.209682 5.000000 33.076500
9 2 0.209682 5.000000 35.536500
10 2 0.209682 5.000000 37.996500
11 2 0.209682 5.000000 40.456500
12 2 0.209682 5.000000 42.916500
13 2 0.209682 5.000000 45.376500
14 2 0.209682 5.000000 47.836500
15 2 16.627676 5.000000 34.306500
16 2 16.627676 5.000000 36.766500
17 2 16.627676 5.000000 39.226500
18 2 16.627676 5.000000 41.686500
19 2 16.627676 5.000000 44.146500
20 2 16.627676 5.000000 46.606500
21 2 16.627676 5.000000 49.066500
22 2 1.637438 5.000000 33.076500
23 2 1.637438 5.000000 35.536500
24 2 1.637438 5.000000 37.996500
25 2 1.637438 5.000000 40.456500
26 2 1.637438 5.000000 42.916500
27 2 1.637438 5.000000 45.376500
28 2 1.637438 5.000000 47.836500
29 2 2.351145 5.000000 34.306500
30 2 2.351145 5.000000 36.766500
31 1 2.351145 5.000000 39.226500
32 1 2.351145 5.000000 41.686500
33 1 2.351145 5.000000 44.146500
34 1 2.351145 5.000000 46.606500
35 1 2.351145 5.000000 49.066500
36 1 4.492607 5.000000 33.076500
37 1 4.492607 5.000000 35.536500
38 1 4.492607 5.000000 37.996500
39 1 4.492607 5.000000 40.456500
40 1 4.492607 5.000000 42.916500
41 1 4.492607 5.000000 45.376500
42 1 4.492607 5.000000 47.836500
43 1 3.778901 5.000000 34.306500
44 1 3.778901 5.000000 36.766500
45 1 3.778901 5.000000 39.226500
46 1 3.778901 5.000000 41.686500
47 1 3.778901 5.000000 44.146500
48 1 3.778901 5.000000 46.606500
49 1 3.778901 5.000000 49.066500
50 1 5.920363 5.000000 33.076500
51 1 5.920363 5.000000 35.536500
52 1 5.920363 5.000000 37.996500
53 1 5.920363 5.000000 40.456500
54 1 5.920363 5.000000 42.916500
55 1 5.920363 5.000000 45.376500
56 1 5.920363 5.000000 47.836500
57 1 6.634070 5.000000 34.306500
58 1 6.634070 5.000000 36.766500
59 1 6.634070 5.000000 39.226500
60 1 6.634070 5.000000 41.686500
61 1 6.634070 5.000000 44.146500
62 1 6.634070 5.000000 46.606500
63 1 6.634070 5.000000 49.066500
64 1 8.775532 5.000000 33.076500
65 1 8.775532 5.000000 35.536500
66 1 8.775532 5.000000 37.996500
67 1 8.775532 5.000000 40.456500
68 1 8.775532 5.000000 42.916500
69 1 8.775532 5.000000 45.376500
70 1 8.775532 5.000000 47.836500
71 1 8.061826 5.000000 34.306500
72 1 8.061826 5.000000 36.766500
73 1 8.061826 5.000000 39.226500
74 1 8.061826 5.000000 41.686500
75 1 8.061826 5.000000 44.146500
76 1 8.061826 5.000000 46.606500
77 1 8.061826 5.000000 49.066500
78 1 10.203288 5.000000 33.076500
79 1 10.203288 5.000000 35.536500
80 1 10.203288 5.000000 37.996500
81 1 10.203288 5.000000 40.456500
82 1 10.203288 5.000000 42.916500
83 1 10.203288 5.000000 45.376500
84 1 10.203288 5.000000 47.836500
85 1 10.916995 5.000000 34.306500
86 1 10.916995 5.000000 36.766500
87 1 10.916995 5.000000 39.226500
88 1 10.916995 5.000000 41.686500
89 1 10.916995 5.000000 44.146500
90 1 10.916995 5.000000 46.606500
91 1 10.916995 5.000000 49.066500
92 1 13.058457 5.000000 33.076500
93 1 13.058457 5.000000 35.536500
94 1 13.058457 5.000000 37.996500
95 1 13.058457 5.000000 40.456500
96 1 13.058457 5.000000 42.916500
97 1 13.058457 5.000000 45.376500
98 1 13.058457 5.000000 47.836500
99 1 12.344751 5.000000 34.306500
100 1 12.344751 5.000000 36.766500
101 1 12.344751 5.000000 39.226500
102 1 12.344751 5.000000 41.686500
103 1 12.344751 5.000000 44.146500
104 1 12.344751 5.000000 46.606500
105 1 12.344751 5.000000 49.066500
106 1 14.486213 5.000000 33.076500
107 1 14.486213 5.000000 35.536500
108 1 14.486213 5.000000 37.996500
109 1 14.486213 5.000000 40.456500
110 1 14.486213 5.000000 42.916500
111 1 14.486213 5.000000 45.376500
112 1 14.486213 5.000000 47.836500
113 2 14.629777 5.000000 50.054000
114 2 0.065947 5.000000 50.054000
115 2 1.783229 5.000000 50.055000
116 2 4.348872 5.000000 50.054000
117 2 6.066154 5.000000 50.055000
118 2 8.631797 5.000000 50.054000
119 2 10.349079 5.000000 50.055000
120 2 12.914722 5.000000 50.054000
121 1 -0.039917 5.000000 8.565500
122 1 -0.039917 5.000000 12.826500
123 1 -0.039917 5.000000 17.087500
124 1 -0.039917 5.000000 21.348000
125 1 -0.039917 5.000000 9.986000
126 1 -0.039917 5.000000 14.246500
127 1 -0.039917 5.000000 18.507500
128 1 -0.039917 5.000000 22.768500
129 1 15.868066 5.000000 10.696000
130 1 15.868066 5.000000 14.957000
131 1 15.868066 5.000000 19.217500
132 1 15.868066 5.000000 23.478500
133 1 15.868066 5.000000 7.855500
134 1 15.868066 5.000000 12.116500
135 1 15.868066 5.000000 16.377000
136 1 15.868066 5.000000 20.638000
137 1 14.644348 5.000000 8.565500
138 1 14.644348 5.000000 12.826500
139 1 14.644348 5.000000 17.087500
140 1 14.644348 5.000000 21.348000
141 1 13.420631 5.000000 10.696000
142 1 13.420631 5.000000 14.957000
143 1 13.420631 5.000000 19.217500
144 1 13.420631 5.000000 23.478500
145 1 14.644348 5.000000 9.986000
146 1 14.644348 5.000000 14.246500
147 1 14.644348 5.000000 18.507500
148 1 14.644348 5.000000 22.768500
149 1 13.420631 5.000000 7.855500
150 1 13.420631 5.000000 12.116500
151 1 13.420631 5.000000 16.377000
152 1 13.420631 5.000000 20.638000
153 1 12.197085 5.000000 8.565500
154 1 12.197085 5.000000 12.826500
155 1 12.197085 5.000000 17.087500
156 1 12.197085 5.000000 21.348000
157 1 10.973368 5.000000 10.696000
158 1 10.973368 5.000000 14.957000
159 1 10.973368 5.000000 19.217500
160 1 10.973368 5.000000 23.478500
161 1 12.197085 5.000000 9.986000
162 1 12.197085 5.000000 14.246500
163 1 12.197085 5.000000 18.507500
164 1 12.197085 5.000000 22.768500
165 1 10.973368 5.000000 7.855500
166 1 10.973368 5.000000 12.116500
167 1 10.973368 5.000000 16.377000
168 1 10.973368 5.000000 20.638000
169 1 9.749650 5.000000 8.565500
170 1 9.749650 5.000000 12.826500
171 1 9.749650 5.000000 17.087500
172 1 9.749650 5.000000 21.348000
173 1 8.525933 5.000000 10.696000
174 1 8.525933 5.000000 14.957000
175 1 8.525933 5.000000 19.217500
176 1 8.525933 5.000000 23.478500
177 1 9.749650 5.000000 9.986000
178 1 9.749650 5.000000 14.246500
179 1 9.749650 5.000000 18.507500
180 1 9.749650 5.000000 22.768500
181 1 8.525933 5.000000 7.855500
182 1 8.525933 5.000000 12.116500
183 1 8.525933 5.000000 16.377000
184 1 8.525933 5.000000 20.638000
185 1 7.302216 5.000000 8.565500
186 1 7.302216 5.000000 12.826500
187 1 7.302216 5.000000 17.087500
188 1 7.302216 5.000000 21.348000
189 1 6.078498 5.000000 10.696000
190 1 6.078498 5.000000 14.957000
191 1 6.078498 5.000000 19.217500
192 1 6.078498 5.000000 23.478500
193 1 7.302216 5.000000 9.986000
194 1 7.302216 5.000000 14.246500
195 1 7.302216 5.000000 18.507500
196 1 7.302216 5.000000 22.768500
197 1 6.078498 5.000000 7.855500
198 1 6.078498 5.000000 12.116500
199 1 6.078498 5.000000 16.377000
200 1 6.078498 5.000000 20.638000
201 1 4.854781 5.000000 8.565500
202 1 4.854781 5.000000 12.826500
203 1 4.854781 5.000000 17.087500
204 1 4.854781 5.000000 21.348000
205 1 3.631235 5.000000 10.696000
206 1 3.631235 5.000000 14.957000
207 1 3.631235 5.000000 19.217500
208 1 3.631235 5.000000 23.478500
209 1 4.854781 5.000000 9.986000
210 1 4.854781 5.000000 14.246500
211 1 4.854781 5.000000 18.507500
212 1 4.854781 5.000000 22.768500
213 1 3.631235 5.000000 7.855500
214 1 3.631235 5.000000 12.116500
215 1 3.631235 5.000000 16.377000
216 1 3.631235 5.000000 20.638000
217 1 2.407518 5.000000 8.565500
218 1 2.407518 5.000000 12.826500
219 1 2.407518 5.000000 17.087500
220 1 2.407518 5.000000 21.348000
221 1 1.183800 5.000000 10.696000
222 1 1.183800 5.000000 14.957000
223 1 1.183800 5.000000 19.217500
224 1 1.183800 5.000000 23.478500
225 1 2.407518 5.000000 9.986000
226 1 2.407518 5.000000 14.246500
227 1 2.407518 5.000000 18.507500
228 1 2.407518 5.000000 22.768500
229 1 1.183800 5.000000 7.855500
230 1 1.183800 5.000000 12.116500
231 1 1.183800 5.000000 16.377000
232 1 1.183800 5.000000 20.638000
233 2 15.865667 5.000000 6.715500
234 2 13.423030 5.000000 6.715500
235 2 10.975766 5.000000 6.715500
236 2 8.528332 5.000000 6.715500
237 2 6.080897 5.000000 6.715500
238 2 3.633634 5.000000 6.715500
239 2 1.181402 5.000000 6.715500
240 2 10.855360 2.148138 28.319891
241 2 9.170487 2.823354 23.500000
242 2 14.154366 3.379869 27.033054
243 2 6.853883 6.614597 23.922685
244 2 11.134823 2.462562 25.247463
245 2 0.603475 0.822478 26.060232
246 2 11.297253 3.787282 24.718512
247 2 11.345062 5.170170 23.500000
248 2 5.973463 3.629966 27.754716
249 2 5.864404 4.235986 29.274611
250 2 9.459502 8.217035 28.520104
251 2 10.047178 0.541839 24.297483
252 2 5.845597 8.154845 30.319343
253 2 1.527451 9.846541 30.762906
254 2 2.609951 2.228393 25.810987
255 2 8.219329 4.545562 28.253113
256 2 8.284053 9.265630 26.493167
257 2 4.259929 1.047452 28.742085
258 2 6.441040 0.498300 31.377037
259 2 16.944309 1.875113 28.871455
260 2 16.910342 4.904186 31.596233
261 2 6.459010 4.680635 29.679125
262 2 1.475468 0.401897 32.345303
263 2 5.844508 0.221343 32.575455
264 2 2.254417 1.698164 33.000000
265 2 13.397258 6.309588 31.896503
266 2 5.885586 4.856980 30.518134
267 2 8.918276 6.610063 31.927222
268 1 0.864697 6.858340 24.622798
269 1 1.274394 5.315841 25.545575
270 1 16.773237 5.548915 24.883053
271 1 13.237799 5.422743 25.194873
272 1 0.662338 9.185954 25.185670
273 1 10.493200 9.839045 23.508765
274 1 15.561770 7.912582 25.353659
275 1 10.660592 8.386390 24.300200
276 1 11.012148 4.913247 24.584591
277 1 14.267726 9.046295 23.735936
278 1 6.746279 2.190477 24.723072
279 1 3.872185 6.371943 27.372900
280 1 4.937068 6.057378 29.490039
281 1 12.401493 6.709804 26.219066
282 1 10.381986 1.210806 26.329238
283 1 15.803859 2.696874 29.803241
284 1 8.171396 8.713960 26.653362
285 1 14.123048 1.973516 23.500000
286 1 5.514011 4.361145 24.872549
287 1 15.392481 2.326698 26.079779
288 1 0.866850 0.771255 27.936483
289 1 17.021146 9.994449 26.629668
290 1 7.013411 7.772386 30.326004
291 1 13.916432 2.864170 30.786354
292 1 11.038903 3.638685 31.698789
293 1 16.206018 7.154027 31.871474
294 1 13.865116 9.445946 33.000000
295 1 0.203178 2.922812 30.550083
296 1 7.824343 1.026192 33.000000
297 1 12.099539 9.811618 33.000000
298 1 3.628509 4.416947 29.224497
299 1 13.388539 3.646860 32.580652
300 1 1.317659 9.037103 31.513411
