300
Atoms. Timestep: 0
458388384              4.329695                     5               34.3065
458388384              4.329695                     5               36.7665
458388384              4.329695                     5               39.2265
458388384              4.329695                     5               41.6865
458388384              4.329695                     5               44.1465
458388384              4.329695                     5               46.6065
458388384              4.329695                     5               49.0665
458388384              6.471157                     5               33.0765
458388384              6.471157                     5               35.5365
458388384              6.471157                     5               37.9965
458388384              6.471157                     5               40.4565
458388384              6.471157                     5               42.9165
458388384              6.471157                     5               45.3765
458388384              6.471157                     5               47.8365
458388384               5.75745                     5               34.3065
458388384               5.75745                     5               36.7665
458388384               5.75745                     5               39.2265
458388384               5.75745                     5               41.6865
458388384               5.75745                     5               44.1465
458388384               5.75745                     5               46.6065
458388384               5.75745                     5               49.0665
458388384              7.898913                     5               33.0765
458388384              7.898913                     5               35.5365
458388384              7.898913                     5               37.9965
458388384              7.898913                     5               40.4565
458388384              7.898913                     5               42.9165
458388384              7.898913                     5               45.3765
458388384              7.898913                     5               47.8365
458388384               8.61262                     5               34.3065
458388384               8.61262                     5               36.7665
458388352               8.61262                     5               39.2265
458388352               8.61262                     5               41.6865
458388352               8.61262                     5               44.1465
458388352               8.61262                     5               46.6065
458388352               8.61262                     5               49.0665
458388352             10.754082                     5               33.0765
458388352             10.754082                     5               35.5365
458388352             10.754082                     5               37.9965
458388352             10.754082                     5               40.4565
458388352             10.754082                     5               42.9165
458388352             10.754082                     5               45.3765
458388352             10.754082                     5               47.8365
458388352             10.040375                     5               34.3065
458388352             10.040375                     5               36.7665
458388352             10.040375                     5               39.2265
458388352             10.040375                     5               41.6865
458388352             10.040375                     5               44.1465
458388352             10.040375                     5               46.6065
458388352             10.040375                     5               49.0665
458388352             12.181838                     5               33.0765
458388352             12.181838                     5               35.5365
458388352             12.181838                     5               37.9965
458388352             12.181838                     5               40.4565
458388352             12.181838                     5               42.9165
458388352             12.181838                     5               45.3765
458388352             12.181838                     5               47.8365
458388352             12.895545                     5               34.3065
458388352             12.895545                     5               36.7665
458388352             12.895545                     5               39.2265
458388352             12.895545                     5               41.6865
458388352             12.895545                     5               44.1465
458388352             12.895545                     5               46.6065
458388352             12.895545                     5               49.0665
458388352             15.037007                     5               33.0765
458388352             15.037007                     5               35.5365
458388352             15.037007                     5               37.9965
458388352             15.037007                     5               40.4565
458388352             15.037007                     5               42.9165
458388352             15.037007                     5               45.3765
458388352             15.037007                     5               47.8365
458388352               14.3233                     5               34.3065
458388352               14.3233                     5               36.7665
458388352               14.3233                     5               39.2265
458388352               14.3233                     5               41.6865
458388352               14.3233                     5               44.1465
458388352               14.3233                     5               46.6065
458388352               14.3233                     5               49.0665
458388352             16.464763                     5               33.0765
458388352             16.464763                     5               35.5365
458388352             16.464763                     5               37.9965
458388352             16.464763                     5               40.4565
458388352             16.464763                     5               42.9165
458388352             16.464763                     5               45.3765
458388352             16.464763                     5               47.8365
458388352               0.04677                     5               34.3065
458388352               0.04677                     5               36.7665
458388352               0.04677                     5               39.2265
458388352               0.04677                     5               41.6865
458388352               0.04677                     5               44.1465
458388352               0.04677                     5               46.6065
458388352               0.04677                     5               49.0665
458388352              2.188232                     5               33.0765
458388352              2.188232                     5               35.5365
458388352              2.188232                     5               37.9965
458388352              2.188232                     5               40.4565
458388352              2.188232                     5               42.9165
458388352              2.188232                     5               45.3765
458388352              2.188232                     5               47.8365
458388352              1.474525                     5               34.3065
458388352              1.474525                     5               36.7665
458388352              1.474525                     5               39.2265
458388352              1.474525                     5               41.6865
458388352              1.474525                     5               44.1465
458388352              1.474525                     5               46.6065
458388352              1.474525                     5               49.0665
458388352              3.615988                     5               33.0765
458388352              3.615988                     5               35.5365
458388352              3.615988                     5               37.9965
458388352              3.615988                     5               40.4565
458388352              3.615988                     5               42.9165
458388352              3.615988                     5               45.3765
458388352              3.615988                     5               47.8365
458388384              3.759552                     5     0.054000000000002
458388384              6.327422                     5     0.054000000000002
458388384              8.044704                     5    0.0549999999999997
458388384             10.610347                     5     0.054000000000002
458388384             12.327629                     5    0.0549999999999997
458388384             14.893272                     5     0.054000000000002
458388384             16.610554                     5    0.0549999999999997
458388384              2.044497                     5     0.054000000000002
458388352             17.091783                     5                8.5655
458388352             17.091783                     5               12.8265
458388352             17.091783                     5               17.0875
458388352             17.091783                     5                21.348
458388352             17.091783                     5                 9.986
458388352             17.091783                     5               14.2465
458388352             17.091783                     5               18.5075
458388352             17.091783                     5               22.7685
458388352             15.868066                     5                10.696
458388352             15.868066                     5                14.957
458388352             15.868066                     5               19.2175
458388352             15.868066                     5               23.4785
458388352             15.868066                     5                7.8555
458388352             15.868066                     5               12.1165
458388352             15.868066                     5                16.377
458388352             15.868066                     5                20.638
458388352             14.644348                     5                8.5655
458388352             14.644348                     5               12.8265
458388352             14.644348                     5               17.0875
458388352             14.644348                     5                21.348
458388352             13.420631                     5                10.696
458388352             13.420631                     5                14.957
458388352             13.420631                     5               19.2175
458388352             13.420631                     5               23.4785
458388352             14.644348                     5                 9.986
458388352             14.644348                     5               14.2465
458388352             14.644348                     5               18.5075
458388352             14.644348                     5               22.7685
458388352             13.420631                     5                7.8555
458388352             13.420631                     5               12.1165
458388352             13.420631                     5                16.377
458388352             13.420631                     5                20.638
458388352             12.197085                     5                8.5655
458388352             12.197085                     5               12.8265
458388352             12.197085                     5               17.0875
458388352             12.197085                     5                21.348
458388352             10.973368                     5                10.696
458388352             10.973368                     5                14.957
458388352             10.973368                     5               19.2175
458388352             10.973368                     5               23.4785
458388352             12.197085                     5                 9.986
458388352             12.197085                     5               14.2465
458388352             12.197085                     5               18.5075
458388352             12.197085                     5               22.7685
458388352             10.973368                     5                7.8555
458388352             10.973368                     5               12.1165
458388352             10.973368                     5                16.377
458388352             10.973368                     5                20.638
458388352               9.74965                     5                8.5655
458388352               9.74965                     5               12.8265
458388352               9.74965                     5               17.0875
458388352               9.74965                     5                21.348
458388352              8.525933                     5                10.696
458388352              8.525933                     5                14.957
458388352              8.525933                     5               19.2175
458388352              8.525933                     5               23.4785
458388352               9.74965                     5                 9.986
458388352               9.74965                     5               14.2465
458388352               9.74965                     5               18.5075
458388352               9.74965                     5               22.7685
458388352              8.525933                     5                7.8555
458388352              8.525933                     5               12.1165
458388352              8.525933                     5                16.377
458388352              8.525933                     5                20.638
458388352              7.302216                     5                8.5655
458388352              7.302216                     5               12.8265
458388352              7.302216                     5               17.0875
458388352              7.302216                     5                21.348
458388352              6.078498                     5                10.696
458388352              6.078498                     5                14.957
458388352              6.078498                     5               19.2175
458388352              6.078498                     5               23.4785
458388352              7.302216                     5                 9.986
458388352              7.302216                     5               14.2465
458388352              7.302216                     5               18.5075
458388352              7.302216                     5               22.7685
458388352              6.078498                     5                7.8555
458388352              6.078498                     5               12.1165
458388352              6.078498                     5                16.377
458388352              6.078498                     5                20.638
458388352              4.854781                     5                8.5655
458388352              4.854781                     5               12.8265
458388352              4.854781                     5               17.0875
458388352              4.854781                     5                21.348
458388352              3.631235                     5                10.696
458388352              3.631235                     5                14.957
458388352              3.631235                     5               19.2175
458388352              3.631235                     5               23.4785
458388352              4.854781                     5                 9.986
458388352              4.854781                     5               14.2465
458388352              4.854781                     5               18.5075
458388352              4.854781                     5               22.7685
458388352              3.631235                     5                7.8555
458388352              3.631235                     5               12.1165
458388352              3.631235                     5                16.377
458388352              3.631235                     5                20.638
458388352              2.407518                     5                8.5655
458388352              2.407518                     5               12.8265
458388352              2.407518                     5               17.0875
458388352              2.407518                     5                21.348
458388352                1.1838                     5                10.696
458388352                1.1838                     5                14.957
458388352                1.1838                     5               19.2175
458388352                1.1838                     5               23.4785
458388352              2.407518                     5                 9.986
458388352              2.407518                     5               14.2465
458388352              2.407518                     5               18.5075
458388352              2.407518                     5               22.7685
458388352                1.1838                     5                7.8555
458388352                1.1838                     5               12.1165
458388352                1.1838                     5                16.377
458388352                1.1838                     5                20.638
458388384             15.865667                     5                6.7155
458388384              13.42303                     5                6.7155
458388384             10.975766                     5                6.7155
458388384              8.528332                     5                6.7155
458388384              6.080897                     5                6.7155
458388384              3.633634                     5                6.7155
458388384              1.181402                     5                6.7155
458388384              8.142531              2.798154             25.643622
458388384              7.600825              5.785778             25.062113
458388384              1.588354              3.357743             25.679897
458388384             15.984705              4.223489             27.173201
458388384              3.602573              2.834195             24.639019
458388384              6.481897              3.577568             23.620166
458388384              5.562304              4.149769             27.764065
458388384             14.038023              2.341576             24.386174
458388384             12.183571              3.195891             26.610536
458388384              1.738471              1.407866             31.442891
458388384              9.055994              9.159557             28.746253
458388384              4.941603              9.849855              25.99274
458388384              6.439081                6.1461             30.175016
458388384              3.249246              5.552972             27.484776
458388384             15.172435              8.261261             26.457864
458388384             11.376557              0.159286             29.041252
458388384             17.007243              6.395881             27.215095
458388384              0.740582               9.20405             28.203351
458388384              5.465005              3.530122             30.476202
458388384              6.383243              4.450307             31.401972
458388384              2.889604              4.674802                    33
458388384             13.617179              3.850285             31.751411
458388384             15.977036              9.575247             30.418334
458388384              5.310139              1.724952             30.160674
458388384             11.753409              5.496409             32.738469
458388384              15.93854              8.641308             32.636735
458388384              8.864411              8.117853                    33
458388384             16.503655              8.288604             30.540717
458388352              2.522165              9.316425             27.056549
458388352              4.352448              9.288067             25.238545
458388352              2.938422              9.218365               24.0242
458388352             12.094982                1.1188             25.932434
458388352              1.657092              4.962164             25.811068
458388352              8.270053                0.9516             24.850983
458388352              3.066757               1.69073             24.115422
458388352             13.148555              7.871404             24.151825
458388352             10.836207              4.576904             24.619171
458388352             12.846643              8.299263                  23.5
458388352              1.064018              0.587429             24.066887
458388352              0.668171              4.460071             29.843145
458388352             10.005658              7.489585              24.92915
458388352              3.958984              3.036752             27.691274
458388352              4.709936              6.357109             27.706955
458388352              2.130773              7.598859             28.151268
458388352              9.441127              3.849681             26.834396
458388352              6.219899              8.906521             26.041104
458388352             10.388954              9.370165             27.322589
458388352             15.551937              9.298946             25.602096
458388352             16.345567              6.995389             27.928193
458388352              8.135993              8.520938             28.377766
458388352               9.73516              0.534532             30.040852
458388352               7.89727              6.206995             28.777391
458388352              4.718133              3.943849             31.355369
458388352               7.62033              2.815772                    33
458388352              16.36866              8.531633                    33
458388352             15.091945              3.569112              30.10944
458388352             12.281024              2.511914                    33
458388352             13.965682              1.866277                    33
458388352             15.311093              8.742754             32.789339
458388352              12.06002              6.517684             28.091937
458388352              2.800323              9.342393                    33
300
Atoms. Timestep: 10
458388384      4.33131570202169                     5       34.316515979621
458388384      4.33131570202169                     5       36.776515979621
458388384      4.33131570202169                     5       39.236515979621
458388384      4.33131570202169                     5       41.696515979621
458388384      4.33131570202169                     5       44.156515979621
458388384      4.33131570202169                     5       46.616515979621
458388384      4.33131570202169                     5       49.076515979621
458388384      6.47277770202169                     5       33.086515979621
458388384      6.47277770202169                     5       35.546515979621
458388384      6.47277770202169                     5       38.006515979621
458388384      6.47277770202169                     5       40.466515979621
458388384      6.47277770202169                     5       42.926515979621
458388384      6.47277770202169                     5       45.386515979621
458388384      6.47277770202169                     5       47.846515979621
458388384      5.75907070202169                     5       34.316515979621
458388384      5.75907070202169                     5       36.776515979621
458388384      5.75907070202169                     5       39.236515979621
458388384      5.75907070202169                     5       41.696515979621
458388384      5.75907070202169                     5       44.156515979621
458388384      5.75907070202169                     5       46.616515979621
458388384      5.75907070202169                     5       49.076515979621
458388384      7.90053370202169                     5       33.086515979621
458388384      7.90053370202169                     5       35.546515979621
458388384      7.90053370202169                     5       38.006515979621
458388384      7.90053370202169                     5       40.466515979621
458388384      7.90053370202169                     5       42.926515979621
458388384      7.90053370202169                     5       45.386515979621
458388384      7.90053370202169                     5       47.846515979621
458388384      8.61424070202169                     5       34.316515979621
458388384      8.61424070202169                     5       36.776515979621
458388352      8.61424070202169                     5       39.236515979621
458388352      8.61424070202169                     5       41.696515979621
458388352      8.61424070202169                     5       44.156515979621
458388352      8.61424070202169                     5       46.616515979621
458388352      8.61424070202169                     5       49.076515979621
458388352      10.7557027020217                     5       33.086515979621
458388352      10.7557027020217                     5       35.546515979621
458388352      10.7557027020217                     5       38.006515979621
458388352      10.7557027020217                     5       40.466515979621
458388352      10.7557027020217                     5       42.926515979621
458388352      10.7557027020217                     5       45.386515979621
458388352      10.7557027020217                     5       47.846515979621
458388352      10.0419957020217                     5       34.316515979621
458388352      10.0419957020217                     5       36.776515979621
458388352      10.0419957020217                     5       39.236515979621
458388352      10.0419957020217                     5       41.696515979621
458388352      10.0419957020217                     5       44.156515979621
458388352      10.0419957020217                     5       46.616515979621
458388352      10.0419957020217                     5       49.076515979621
458388352      12.1834587020217                     5       33.086515979621
458388352      12.1834587020217                     5       35.546515979621
458388352      12.1834587020217                     5       38.006515979621
458388352      12.1834587020217                     5       40.466515979621
458388352      12.1834587020217                     5       42.926515979621
458388352      12.1834587020217                     5       45.386515979621
458388352      12.1834587020217                     5       47.846515979621
458388352      12.8971657020217                     5       34.316515979621
458388352      12.8971657020217                     5       36.776515979621
458388352      12.8971657020217                     5       39.236515979621
458388352      12.8971657020217                     5       41.696515979621
458388352      12.8971657020217                     5       44.156515979621
458388352      12.8971657020217                     5       46.616515979621
458388352      12.8971657020217                     5       49.076515979621
458388352      15.0386277020217                     5       33.086515979621
458388352      15.0386277020217                     5       35.546515979621
458388352      15.0386277020217                     5       38.006515979621
458388352      15.0386277020217                     5       40.466515979621
458388352      15.0386277020217                     5       42.926515979621
458388352      15.0386277020217                     5       45.386515979621
458388352      15.0386277020217                     5       47.846515979621
458388352      14.3249207020217                     5       34.316515979621
458388352      14.3249207020217                     5       36.776515979621
458388352      14.3249207020217                     5       39.236515979621
458388352      14.3249207020217                     5       41.696515979621
458388352      14.3249207020217                     5       44.156515979621
458388352      14.3249207020217                     5       46.616515979621
458388352      14.3249207020217                     5       49.076515979621
458388352      16.4663837020217                     5       33.086515979621
458388352      16.4663837020217                     5       35.546515979621
458388352      16.4663837020217                     5       38.006515979621
458388352      16.4663837020217                     5       40.466515979621
458388352      16.4663837020217                     5       42.926515979621
458388352      16.4663837020217                     5       45.386515979621
458388352      16.4663837020217                     5       47.846515979621
458388352    0.0483907020216875                     5       34.316515979621
458388352    0.0483907020216875                     5       36.776515979621
458388352    0.0483907020216875                     5       39.236515979621
458388352    0.0483907020216875                     5       41.696515979621
458388352    0.0483907020216875                     5       44.156515979621
458388352    0.0483907020216875                     5       46.616515979621
458388352    0.0483907020216875                     5       49.076515979621
458388352      2.18985270202169                     5       33.086515979621
458388352      2.18985270202169                     5       35.546515979621
458388352      2.18985270202169                     5       38.006515979621