search structure

300 atoms
2  atom types

0   17.131700 xlo xhi
0   10.000000 ylo yhi
0   50.000000 zlo zhi

Atoms

1 2 4.329695 5.000000 34.306500
2 2 4.329695 5.000000 36.766500
3 2 4.329695 5.000000 39.226500
4 2 4.329695 5.000000 41.686500
5 2 4.329695 5.000000 44.146500
6 2 4.329695 5.000000 46.606500
7 2 4.329695 5.000000 49.066500
8 2 6.471157 5.000000 33.076500
9 2 6.471157 5.000000 35.536500
10 2 6.471157 5.000000 37.996500
11 2 6.471157 5.000000 40.456500
12 2 6.471157 5.000000 42.916500
13 2 6.471157 5.000000 45.376500
14 2 6.471157 5.000000 47.836500
15 2 5.757450 5.000000 34.306500
16 2 5.757450 5.000000 36.766500
17 2 5.757450 5.000000 39.226500
18 2 5.757450 5.000000 41.686500
19 2 5.757450 5.000000 44.146500
20 2 5.757450 5.000000 46.606500
21 2 5.757450 5.000000 49.066500
22 2 7.898913 5.000000 33.076500
23 2 7.898913 5.000000 35.536500
24 2 7.898913 5.000000 37.996500
25 2 7.898913 5.000000 40.456500
26 2 7.898913 5.000000 42.916500
27 2 7.898913 5.000000 45.376500
28 2 7.898913 5.000000 47.836500
29 2 8.612620 5.000000 34.306500
30 2 8.612620 5.000000 36.766500
31 1 8.612620 5.000000 39.226500
32 1 8.612620 5.000000 41.686500
33 1 8.612620 5.000000 44.146500
34 1 8.612620 5.000000 46.606500
35 1 8.612620 5.000000 49.066500
36 1 10.754082 5.000000 33.076500
37 1 10.754082 5.000000 35.536500
38 1 10.754082 5.000000 37.996500
39 1 10.754082 5.000000 40.456500
40 1 10.754082 5.000000 42.916500
41 1 10.754082 5.000000 45.376500
42 1 10.754082 5.000000 47.836500
43 1 10.040375 5.000000 34.306500
44 1 10.040375 5.000000 36.766500
45 1 10.040375 5.000000 39.226500
46 1 10.040375 5.000000 41.686500
47 1 10.040375 5.000000 44.146500
48 1 10.040375 5.000000 46.606500
49 1 10.040375 5.000000 49.066500
50 1 12.181838 5.000000 33.076500
51 1 12.181838 5.000000 35.536500
52 1 12.181838 5.000000 37.996500
53 1 12.181838 5.000000 40.456500
54 1 12.181838 5.000000 42.916500
55 1 12.181838 5.000000 45.376500
56 1 12.181838 5.000000 47.836500
57 1 12.895545 5.000000 34.306500
58 1 12.895545 5.000000 36.766500
59 1 12.895545 5.000000 39.226500
60 1 12.895545 5.000000 41.686500
61 1 12.895545 5.000000 44.146500
62 1 12.895545 5.000000 46.606500
63 1 12.895545 5.000000 49.066500
64 1 15.037007 5.000000 33.076500
65 1 15.037007 5.000000 35.536500
66 1 15.037007 5.000000 37.996500
67 1 15.037007 5.000000 40.456500
68 1 15.037007 5.000000 42.916500
69 1 15.037007 5.000000 45.376500
70 1 15.037007 5.000000 47.836500
71 1 14.323300 5.000000 34.306500
72 1 14.323300 5.000000 36.766500
73 1 14.323300 5.000000 39.226500
74 1 14.323300 5.000000 41.686500
75 1 14.323300 5.000000 44.146500
76 1 14.323300 5.000000 46.606500
77 1 14.323300 5.000000 49.066500
78 1 16.464763 5.000000 33.076500
79 1 16.464763 5.000000 35.536500
80 1 16.464763 5.000000 37.996500
81 1 16.464763 5.000000 40.456500
82 1 16.464763 5.000000 42.916500
83 1 16.464763 5.000000 45.376500
84 1 16.464763 5.000000 47.836500
85 1 0.046770 5.000000 34.306500
86 1 0.046770 5.000000 36.766500
87 1 0.046770 5.000000 39.226500
88 1 0.046770 5.000000 41.686500
89 1 0.046770 5.000000 44.146500
90 1 0.046770 5.000000 46.606500
91 1 0.046770 5.000000 49.066500
92 1 2.188232 5.000000 33.076500
93 1 2.188232 5.000000 35.536500
94 1 2.188232 5.000000 37.996500
95 1 2.188232 5.000000 40.456500
96 1 2.188232 5.000000 42.916500
97 1 2.188232 5.000000 45.376500
98 1 2.188232 5.000000 47.836500
99 1 1.474525 5.000000 34.306500
100 1 1.474525 5.000000 36.766500
101 1 1.474525 5.000000 39.226500
102 1 1.474525 5.000000 41.686500
103 1 1.474525 5.000000 44.146500
104 1 1.474525 5.000000 46.606500
105 1 1.474525 5.000000 49.066500
106 1 3.615988 5.000000 33.076500
107 1 3.615988 5.000000 35.536500
108 1 3.615988 5.000000 37.996500
109 1 3.615988 5.000000 40.456500
110 1 3.615988 5.000000 42.916500
111 1 3.615988 5.000000 45.376500
112 1 3.615988 5.000000 47.836500
113 2 3.759552 5.000000 50.054000
114 2 6.327422 5.000000 50.054000
115 2 8.044704 5.000000 50.055000
116 2 10.610347 5.000000 50.054000
117 2 12.327629 5.000000 50.055000
118 2 14.893272 5.000000 50.054000
119 2 16.610554 5.000000 50.055000
120 2 2.044497 5.000000 50.054000
121 1 -0.039917 5.000000 8.565500
122 1 -0.039917 5.000000 12.826500
123 1 -0.039917 5.000000 17.087500
124 1 -0.039917 5.000000 21.348000
125 1 -0.039917 5.000000 9.986000
126 1 -0.039917 5.000000 14.246500
127 1 -0.039917 5.000000 18.507500
128 1 -0.039917 5.000000 22.768500
129 1 15.868066 5.000000 10.696000
130 1 15.868066 5.000000 14.957000
131 1 15.868066 5.000000 19.217500
132 1 15.868066 5.000000 23.478500
133 1 15.868066 5.000000 7.855500
134 1 15.868066 5.000000 12.116500
135 1 15.868066 5.000000 16.377000
136 1 15.868066 5.000000 20.638000
137 1 14.644348 5.000000 8.565500
138 1 14.644348 5.000000 12.826500
139 1 14.644348 5.000000 17.087500
140 1 14.644348 5.000000 21.348000
141 1 13.420631 5.000000 10.696000
142 1 13.420631 5.000000 14.957000
143 1 13.420631 5.000000 19.217500
144 1 13.420631 5.000000 23.478500
145 1 14.644348 5.000000 9.986000
146 1 14.644348 5.000000 14.246500
147 1 14.644348 5.000000 18.507500
148 1 14.644348 5.000000 22.768500
149 1 13.420631 5.000000 7.855500
150 1 13.420631 5.000000 12.116500
151 1 13.420631 5.000000 16.377000
152 1 13.420631 5.000000 20.638000
153 1 12.197085 5.000000 8.565500
154 1 12.197085 5.000000 12.826500
155 1 12.197085 5.000000 17.087500
156 1 12.197085 5.000000 21.348000
157 1 10.973368 5.000000 10.696000
158 1 10.973368 5.000000 14.957000
159 1 10.973368 5.000000 19.217500
160 1 10.973368 5.000000 23.478500
161 1 12.197085 5.000000 9.986000
162 1 12.197085 5.000000 14.246500
163 1 12.197085 5.000000 18.507500
164 1 12.197085 5.000000 22.768500
165 1 10.973368 5.000000 7.855500
166 1 10.973368 5.000000 12.116500
167 1 10.973368 5.000000 16.377000
168 1 10.973368 5.000000 20.638000
169 1 9.749650 5.000000 8.565500
170 1 9.749650 5.000000 12.826500
171 1 9.749650 5.000000 17.087500
172 1 9.749650 5.000000 21.348000
173 1 8.525933 5.000000 10.696000
174 1 8.525933 5.000000 14.957000
175 1 8.525933 5.000000 19.217500
176 1 8.525933 5.000000 23.478500
177 1 9.749650 5.000000 9.986000
178 1 9.749650 5.000000 14.246500
179 1 9.749650 5.000000 18.507500
180 1 9.749650 5.000000 22.768500
181 1 8.525933 5.000000 7.855500
182 1 8.525933 5.000000 12.116500
183 1 8.525933 5.000000 16.377000
184 1 8.525933 5.000000 20.638000
185 1 7.302216 5.000000 8.565500
186 1 7.302216 5.000000 12.826500
187 1 7.302216 5.000000 17.087500
188 1 7.302216 5.000000 21.348000
189 1 6.078498 5.000000 10.696000
190 1 6.078498 5.000000 14.957000
191 1 6.078498 5.000000 19.217500
192 1 6.078498 5.000000 23.478500
193 1 7.302216 5.000000 9.986000
194 1 7.302216 5.000000 14.246500
195 1 7.302216 5.000000 18.507500
196 1 7.302216 5.000000 22.768500
197 1 6.078498 5.000000 7.855500
198 1 6.078498 5.000000 12.116500
199 1 6.078498 5.000000 16.377000
200 1 6.078498 5.000000 20.638000
201 1 4.854781 5.000000 8.565500
202 1 4.854781 5.000000 12.826500
203 1 4.854781 5.000000 17.087500
204 1 4.854781 5.000000 21.348000
205 1 3.631235 5.000000 10.696000
206 1 3.631235 5.000000 14.957000
207 1 3.631235 5.000000 19.217500
208 1 3.631235 5.000000 23.478500
209 1 4.854781 5.000000 9.986000
210 1 4.854781 5.000000 14.246500
211 1 4.854781 5.000000 18.507500
212 1 4.854781 5.000000 22.768500
213 1 3.631235 5.000000 7.855500
214 1 3.631235 5.000000 12.116500
215 1 3.631235 5.000000 16.377000
216 1 3.631235 5.000000 20.638000
217 1 2.407518 5.000000 8.565500
218 1 2.407518 5.000000 12.826500
219 1 2.407518 5.000000 17.087500
220 1 2.407518 5.000000 21.348000
221 1 1.183800 5.000000 10.696000
222 1 1.183800 5.000000 14.957000
223 1 1.183800 5.000000 19.217500
224 1 1.183800 5.000000 23.478500
225 1 2.407518 5.000000 9.986000
226 1 2.407518 5.000000 14.246500
227 1 2.407518 5.000000 18.507500
228 1 2.407518 5.000000 22.768500
229 1 1.183800 5.000000 7.855500
230 1 1.183800 5.000000 12.116500
231 1 1.183800 5.000000 16.377000
232 1 1.183800 5.000000 20.638000
233 2 15.865667 5.000000 6.715500
234 2 13.423030 5.000000 6.715500
235 2 10.975766 5.000000 6.715500
236 2 8.528332 5.000000 6.715500
237 2 6.080897 5.000000 6.715500
238 2 3.633634 5.000000 6.715500
239 2 1.181402 5.000000 6.715500
240 2 8.142531 2.798154 25.643622
241 2 7.600825 5.785778 25.062113
242 2 1.588354 3.357743 25.679897
243 2 15.984705 4.223489 27.173201
244 2 3.602573 2.834195 24.639019
245 2 6.481897 3.577568 23.620166
246 2 5.562304 4.149769 27.764065
247 2 14.038023 2.341576 24.386174
248 2 12.183571 3.195891 26.610536
249 2 1.738471 1.407866 31.442891
250 2 9.055994 9.159557 28.746253
251 2 4.941603 9.849855 25.992740
252 2 6.439081 6.146100 30.175016
253 2 3.249246 5.552972 27.484776
254 2 15.172435 8.261261 26.457864
255 2 11.376557 0.159286 29.041252
256 2 17.007243 6.395881 27.215095
257 2 0.740582 9.204050 28.203351
258 2 5.465005 3.530122 30.476202
259 2 6.383243 4.450307 31.401972
260 2 2.889604 4.674802 33.000000
261 2 13.617179 3.850285 31.751411
262 2 15.977036 9.575247 30.418334
263 2 5.310139 1.724952 30.160674
264 2 11.753409 5.496409 32.738469
265 2 15.938540 8.641308 32.636735
266 2 8.864411 8.117853 33.000000
267 2 16.503655 8.288604 30.540717
268 1 2.522165 9.316425 27.056549
269 1 4.352448 9.288067 25.238545
270 1 2.938422 9.218365 24.024200
271 1 12.094982 1.118800 25.932434
272 1 1.657092 4.962164 25.811068
273 1 8.270053 0.951600 24.850983
274 1 3.066757 1.690730 24.115422
275 1 13.148555 7.871404 24.151825
276 1 10.836207 4.576904 24.619171
277 1 12.846643 8.299263 23.500000
278 1 1.064018 0.587429 24.066887
279 1 0.668171 4.460071 29.843145
280 1 10.005658 7.489585 24.929150
281 1 3.958984 3.036752 27.691274
282 1 4.709936 6.357109 27.706955
283 1 2.130773 7.598859 28.151268
284 1 9.441127 3.849681 26.834396
285 1 6.219899 8.906521 26.041104
286 1 10.388954 9.370165 27.322589
287 1 15.551937 9.298946 25.602096
288 1 16.345567 6.995389 27.928193
289 1 8.135993 8.520938 28.377766
290 1 9.735160 0.534532 30.040852
291 1 7.897270 6.206995 28.777391
292 1 4.718133 3.943849 31.355369
293 1 7.620330 2.815772 33.000000
294 1 16.368660 8.531633 33.000000
295 1 15.091945 3.569112 30.109440
296 1 12.281024 2.511914 33.000000
297 1 13.965682 1.866277 33.000000
298 1 15.311093 8.742754 32.789339
299 1 12.060020 6.517684 28.091937
300 1 2.800323 9.342393 33.000000
