300
Atoms. Timestep: 0
347939744              16.93807                     5             36.130295
347939744              16.93807                     5             38.590295
347939744              16.93807                     5             41.050295
347939744              16.93807                     5             43.510295
347939744              16.93807                     5             45.970295
347939744              16.93807                     5             48.430295
347939744              16.93807                     5     0.890295000000002
347939744              1.947833                     5             34.900295
347939744              1.947833                     5             37.360295
347939744              1.947833                     5             39.820295
347939744              1.947833                     5             42.280295
347939744              1.947833                     5             44.740295
347939744              1.947833                     5             47.200295
347939744              1.947833                     5             49.660295
347939744              1.234126                     5             36.130295
347939744              1.234126                     5             38.590295
347939744              1.234126                     5             41.050295
347939744              1.234126                     5             43.510295
347939744              1.234126                     5             45.970295
347939744              1.234126                     5             48.430295
347939744              1.234126                     5     0.890295000000002
347939744              3.375588                     5             34.900295
347939744              3.375588                     5             37.360295
347939744              3.375588                     5             39.820295
347939744              3.375588                     5             42.280295
347939744              3.375588                     5             44.740295
347939744              3.375588                     5             47.200295
347939744              3.375588                     5             49.660295
347939744              4.089295                     5             36.130295
347939744              4.089295                     5             38.590295
347939712              4.089295                     5             41.050295
347939712              4.089295                     5             43.510295
347939712              4.089295                     5             45.970295
347939712              4.089295                     5             48.430295
347939712              4.089295                     5     0.890295000000002
347939712              6.230758                     5             34.900295
347939712              6.230758                     5             37.360295
347939712              6.230758                     5             39.820295
347939712              6.230758                     5             42.280295
347939712              6.230758                     5             44.740295
347939712              6.230758                     5             47.200295
347939712              6.230758                     5             49.660295
347939712              5.517051                     5             36.130295
347939712              5.517051                     5             38.590295
347939712              5.517051                     5             41.050295
347939712              5.517051                     5             43.510295
347939712              5.517051                     5             45.970295
347939712              5.517051                     5             48.430295
347939712              5.517051                     5     0.890295000000002
347939712              7.658513                     5             34.900295
347939712              7.658513                     5             37.360295
347939712              7.658513                     5             39.820295
347939712              7.658513                     5             42.280295
347939712              7.658513                     5             44.740295
347939712              7.658513                     5             47.200295
347939712              7.658513                     5             49.660295
347939712               8.37222                     5             36.130295
347939712               8.37222                     5             38.590295
347939712               8.37222                     5             41.050295
347939712               8.37222                     5             43.510295
347939712               8.37222                     5             45.970295
347939712               8.37222                     5             48.430295
347939712               8.37222                     5     0.890295000000002
347939712             10.513683                     5             34.900295
347939712             10.513683                     5             37.360295
347939712             10.513683                     5             39.820295
347939712             10.513683                     5             42.280295
347939712             10.513683                     5             44.740295
347939712             10.513683                     5             47.200295
347939712             10.513683                     5             49.660295
347939712              9.799976                     5             36.130295
347939712              9.799976                     5             38.590295
347939712              9.799976                     5             41.050295
347939712              9.799976                     5             43.510295
347939712              9.799976                     5             45.970295
347939712              9.799976                     5             48.430295
347939712              9.799976                     5     0.890295000000002
347939712             11.941438                     5             34.900295
347939712             11.941438                     5             37.360295
347939712             11.941438                     5             39.820295
347939712             11.941438                     5             42.280295
347939712             11.941438                     5             44.740295
347939712             11.941438                     5             47.200295
347939712             11.941438                     5             49.660295
347939712             12.655145                     5             36.130295
347939712             12.655145                     5             38.590295
347939712             12.655145                     5             41.050295
347939712             12.655145                     5             43.510295
347939712             12.655145                     5             45.970295
347939712             12.655145                     5             48.430295
347939712             12.655145                     5     0.890295000000002
347939712             14.796608                     5             34.900295
347939712             14.796608                     5             37.360295
347939712             14.796608                     5             39.820295
347939712             14.796608                     5             42.280295
347939712             14.796608                     5             44.740295
347939712             14.796608                     5             47.200295
347939712             14.796608                     5             49.660295
347939712             14.082901                     5             36.130295
347939712             14.082901                     5             38.590295
347939712             14.082901                     5             41.050295
347939712             14.082901                     5             43.510295
347939712             14.082901                     5             45.970295
347939712             14.082901                     5             48.430295
347939712             14.082901                     5     0.890295000000002
347939712             16.224363                     5             34.900295
347939712             16.224363                     5             37.360295
347939712             16.224363                     5             39.820295
347939712             16.224363                     5             42.280295
347939712             16.224363                     5             44.740295
347939712             16.224363                     5             47.200295
347939712             16.224363                     5             49.660295
347939744             16.367927                     5              1.877795
347939744              1.804098                     5              1.877795
347939744              3.521379                     5              1.878795
347939744              6.087023                     5              1.877795
347939744              7.804304                     5              1.878795
347939744             10.369948                     5              1.877795
347939744             12.087229                     5              1.878795
347939744             14.652873                     5              1.877795
347939712             17.091783                     5                8.5655
347939712             17.091783                     5               12.8265
347939712             17.091783                     5               17.0875
347939712             17.091783                     5                21.348
347939712             17.091783                     5                 9.986
347939712             17.091783                     5               14.2465
347939712             17.091783                     5               18.5075
347939712             17.091783                     5               22.7685
347939712             15.868066                     5                10.696
347939712             15.868066                     5                14.957
347939712             15.868066                     5               19.2175
347939712             15.868066                     5               23.4785
347939712             15.868066                     5                7.8555
347939712             15.868066                     5               12.1165
347939712             15.868066                     5                16.377
347939712             15.868066                     5                20.638
347939712             14.644348                     5                8.5655
347939712             14.644348                     5               12.8265
347939712             14.644348                     5               17.0875
347939712             14.644348                     5                21.348
347939712             13.420631                     5                10.696
347939712             13.420631                     5                14.957
347939712             13.420631                     5               19.2175
347939712             13.420631                     5               23.4785
347939712             14.644348                     5                 9.986
347939712             14.644348                     5               14.2465
347939712             14.644348                     5               18.5075
347939712             14.644348                     5               22.7685
347939712             13.420631                     5                7.8555
347939712             13.420631                     5               12.1165
347939712             13.420631                     5                16.377
347939712             13.420631                     5                20.638
347939712             12.197085                     5                8.5655
347939712             12.197085                     5               12.8265
347939712             12.197085                     5               17.0875
347939712             12.197085                     5                21.348
347939712             10.973368                     5                10.696
347939712             10.973368                     5                14.957
347939712             10.973368                     5               19.2175
347939712             10.973368                     5               23.4785
347939712             12.197085                     5                 9.986
347939712             12.197085                     5               14.2465
347939712             12.197085                     5               18.5075
347939712             12.197085                     5               22.7685
347939712             10.973368                     5                7.8555
347939712             10.973368                     5               12.1165
347939712             10.973368                     5                16.377
347939712             10.973368                     5                20.638
347939712               9.74965                     5                8.5655
347939712               9.74965                     5               12.8265
347939712               9.74965                     5               17.0875
347939712               9.74965                     5                21.348
347939712              8.525933                     5                10.696
347939712              8.525933                     5                14.957
347939712              8.525933                     5               19.2175
347939712              8.525933                     5               23.4785
347939712               9.74965                     5                 9.986
347939712               9.74965                     5               14.2465
347939712               9.74965                     5               18.5075
347939712               9.74965                     5               22.7685
347939712              8.525933                     5                7.8555
347939712              8.525933                     5               12.1165
347939712              8.525933                     5                16.377
347939712              8.525933                     5                20.638
347939712              7.302216                     5                8.5655
347939712              7.302216                     5               12.8265
347939712              7.302216                     5               17.0875
347939712              7.302216                     5                21.348
347939712              6.078498                     5                10.696
347939712              6.078498                     5                14.957
347939712              6.078498                     5               19.2175
347939712              6.078498                     5               23.4785
347939712              7.302216                     5                 9.986
347939712              7.302216                     5               14.2465
347939712              7.302216                     5               18.5075
347939712              7.302216                     5               22.7685
347939712              6.078498                     5                7.8555
347939712              6.078498                     5               12.1165
347939712              6.078498                     5                16.377
347939712              6.078498                     5                20.638
347939712              4.854781                     5                8.5655
347939712              4.854781                     5               12.8265
347939712              4.854781                     5               17.0875
347939712              4.854781                     5                21.348
347939712              3.631235                     5                10.696
347939712              3.631235                     5                14.957
347939712              3.631235                     5               19.2175
347939712              3.631235                     5               23.4785
347939712              4.854781                     5                 9.986
347939712              4.854781                     5               14.2465
347939712              4.854781                     5               18.5075
347939712              4.854781                     5               22.7685
347939712              3.631235                     5                7.8555
347939712              3.631235                     5               12.1165
347939712              3.631235                     5                16.377
347939712              3.631235                     5                20.638
347939712              2.407518                     5                8.5655
347939712              2.407518                     5               12.8265
347939712              2.407518                     5               17.0875
347939712              2.407518                     5                21.348
347939712                1.1838                     5                10.696
347939712                1.1838                     5                14.957
347939712                1.1838                     5               19.2175
347939712                1.1838                     5               23.4785
347939712              2.407518                     5                 9.986
347939712              2.407518                     5               14.2465
347939712              2.407518                     5               18.5075
347939712              2.407518                     5               22.7685
347939712                1.1838                     5                7.8555
347939712                1.1838                     5               12.1165
347939712                1.1838                     5                16.377
347939712                1.1838                     5                20.638
347939744             15.865667                     5                6.7155
347939744              13.42303                     5                6.7155
347939744             10.975766                     5                6.7155
347939744              8.528332                     5                6.7155
347939744              6.080897                     5                6.7155
347939744              3.633634                     5                6.7155
347939744              1.181402                     5                6.7155
347939744              5.104472              1.509259             26.056089
347939744              7.216986              7.185214             28.586324
347939744              5.046997              8.830972             23.740655
347939744              7.573889              9.047201             26.888202
347939744             13.566024              1.424091             23.721541
347939744              8.544915              2.939696             23.643102
347939744             14.799607              4.252479             25.072227
347939744             15.031842              4.420799             26.627226
347939744             10.107617              9.657528             28.422014
347939744              0.069201              1.064264             29.352136
347939744              2.380752              2.982432             30.656342
347939744              4.611959              3.953868              29.19963
347939744               5.47459               6.21731             30.819985
347939744              9.003897              3.027387             29.831926
347939744             15.911415              4.723615             28.587135
347939744              9.390703              6.008996             29.147405
347939744              8.274645              6.458625             31.079123
347939744             13.067826              7.413573             30.266725
347939744              5.431581              4.500145             34.674965
347939744              6.223018              4.707862             33.104308
347939744              9.968055               5.68427              33.55518
347939744               2.87482              7.756721             33.339001
347939744             10.260966              9.417084             31.286555
347939744             12.522407              6.359029             32.368022
347939744             13.114857              6.755841             33.368839
347939744             15.886438              7.576474             32.984291
347939744             14.910556               8.79975             32.747818
347939744             14.726687              8.929828             34.651409
347939712                0.1455              0.463302             26.294504
347939712               5.10582              2.923515             24.136335
347939712              0.169157              4.006309             25.288501
347939712              3.859153              7.721797             25.848783
347939712              5.669835              8.197899               25.8876
347939712             15.718329              0.723115             24.874721
347939712             13.972907              3.445314             25.836255
347939712             14.663042              6.164539             25.751418
347939712             11.551492              6.850937             24.929372
347939712             12.066999              7.053814             24.147682
347939712             13.214246               7.67859             24.230482
347939712               0.47936              0.405126             29.460681
347939712              6.527917              1.613883             27.649437
347939712              2.998383              4.047809              28.55568
347939712              2.266242              4.719199             28.862925
347939712              3.022189              4.863805             28.688284
347939712              10.35167              0.164459              27.34568
347939712             13.137077              1.049752             31.109761
347939712             11.348658              2.127942             31.117399
347939712             13.272397              4.848573             29.887566
347939712             15.383904              6.995389             28.850051
347939712              8.220967              7.829463             26.829589
347939712              2.906561              2.403657             33.056858
347939712              2.392467               4.22573             32.399316
347939712              0.096702              4.414723             34.571896
347939712              9.389704              6.448146             34.435587
347939712                0.0145              8.350495             31.374751
347939712              9.734969              1.860448             34.606627
347939712             14.757264              3.206813              31.53343
347939712             14.949702              3.753961             33.379491
347939712             16.451753              6.181734             32.412264
347939712             10.352128              9.069549             34.500979
347939712              16.79598              9.809472             34.699446
300
Atoms. Timestep: 9
347939744      16.9363222392058                     5      36.1343663867554
347939744      16.9363222392058                     5      38.5943663867554
347939744      16.9363222392058                     5      41.0543663867554
347939744      16.9363222392058                     5      43.5143663867554
347939744      16.9363222392058                     5      45.9743663867554
347939744      16.9363222392058                     5      48.4343663867554
347939744      16.9363222392058                     5     0.894366386755426
347939744      1.94608523920577                     5      34.9043663867554
347939744      1.94608523920577                     5      37.3643663867554
347939744      1.94608523920577                     5      39.8243663867554
347939744      1.94608523920577                     5      42.2843663867554
347939744      1.94608523920577                     5      44.7443663867554
347939744      1.94608523920577                     5      47.2043663867554
347939744      1.94608523920577                     5      49.6643663867554
347939744      1.23237823920577                     5      36.1343663867554
347939744      1.23237823920577                     5      38.5943663867554
347939744      1.23237823920577                     5      41.0543663867554
347939744      1.23237823920577                     5      43.5143663867554
347939744      1.23237823920577                     5      45.9743663867554
347939744      1.23237823920577                     5      48.4343663867554
347939744      1.23237823920577                     5     0.894366386755426
347939744      3.37384023920577                     5      34.9043663867554
347939744      3.37384023920577                     5      37.3643663867554
347939744      3.37384023920577                     5      39.8243663867554
347939744      3.37384023920577                     5      42.2843663867554
347939744      3.37384023920577                     5      44.7443663867554
347939744      3.37384023920577                     5      47.2043663867554
347939744      3.37384023920577                     5      49.6643663867554
347939744      4.08754723920577                     5      36.1343663867554
347939744      4.08754723920577                     5      38.5943663867554
347939712      4.08754723920577                     5      41.0543663867554
347939712      4.08754723920577                     5      43.5143663867554
347939712      4.08754723920577                     5      45.9743663867554
347939712      4.08754723920577                     5      48.4343663867554
347939712      4.08754723920577                     5     0.894366386755426
347939712      6.22901023920577                     5      34.9043663867554
347939712      6.22901023920577                     5      37.3643663867554
347939712      6.22901023920577                     5      39.8243663867554
347939712      6.22901023920577                     5      42.2843663867554
347939712      6.22901023920577                     5      44.7443663867554
347939712      6.22901023920577                     5      47.2043663867554
347939712      6.22901023920577                     5      49.6643663867554
347939712      5.51530323920577                     5      36.1343663867554
347939712      5.51530323920577                     5      38.5943663867554
347939712      5.51530323920577                     5      41.0543663867554
347939712      5.51530323920577                     5      43.5143663867554
347939712      5.51530323920577                     5      45.9743663867554
347939712      5.51530323920577                     5      48.4343663867554
347939712      5.51530323920577                     5     0.894366386755426
347939712      7.65676523920577                     5      34.9043663867554
347939712      7.65676523920577                     5      37.3643663867554
347939712      7.65676523920577                     5      39.8243663867554
347939712      7.65676523920577                     5      42.2843663867554
347939712      7.65676523920577                     5      44.7443663867554
347939712      7.65676523920577                     5      47.2043663867554
347939712      7.65676523920577                     5      49.6643663867554
347939712      8.37047223920577                     5      36.1343663867554
347939712      8.37047223920577                     5      38.5943663867554
347939712      8.37047223920577                     5      41.0543663867554
347939712      8.37047223920577                     5      43.5143663867554
347939712      8.37047223920577                     5      45.9743663867554
347939712      8.37047223920577                     5      48.4343663867554
347939712      8.37047223920577                     5     0.894366386755426
347939712      10.5119352392058                     5      34.9043663867554
347939712      10.5119352392058                     5      37.3643663867554
347939712      10.5119352392058                     5      39.8243663867554
347939712      10.5119352392058                     5      42.2843663867554
347939712      10.5119352392058                     5      44.7443663867554
347939712      10.5119352392058                     5      47.2043663867554
347939712      10.5119352392058                     5      49.6643663867554
347939712      9.79822823920577                     5      36.1343663867554
347939712      9.79822823920577                     5      38.5943663867554
347939712      9.79822823920577                     5      41.0543663867554
347939712      9.79822823920577                     5      43.5143663867554
347939712      9.79822823920577                     5      45.9743663867554
347939712      9.79822823920577                     5      48.4343663867554
347939712      9.79822823920577                     5     0.894366386755426
347939712      11.9396902392058                     5      34.9043663867554
347939712      11.9396902392058                     5      37.3643663867554
347939712      11.9396902392058                     5      39.8243663867554
347939712      11.9396902392058                     5      42.2843663867554
347939712      11.9396902392058                     5      44.7443663867554
347939712      11.9396902392058                     5      47.2043663867554
347939712      11.9396902392058                     5      49.6643663867554
347939712      12.6533972392058                     5      36.1343663867554
347939712      12.6533972392058                     5      38.5943663867554
347939712      12.6533972392058                     5      41.0543663867554
347939712      12.6533972392058                     5      43.5143663867554
347939712      12.6533972392058                     5      45.9743663867554
347939712      12.6533972392058                     5      48.4343663867554
347939712      12.6533972392058                     5     0.894366386755426
347939712      14.7948602392058                     5      34.9043663867554
347939712      14.7948602392058                     5      37.3643663867554
347939712      14.7948602392058                     5      39.8243663867554