search structure

300 atoms
2  atom types

0   17.131700 xlo xhi
0   10.000000 ylo yhi
0   50.000000 zlo zhi

Atoms

1 2 16.938070 5.000000 36.130295
2 2 16.938070 5.000000 38.590295
3 2 16.938070 5.000000 41.050295
4 2 16.938070 5.000000 43.510295
5 2 16.938070 5.000000 45.970295
6 2 16.938070 5.000000 48.430295
7 2 16.938070 5.000000 50.890295
8 2 1.947833 5.000000 34.900295
9 2 1.947833 5.000000 37.360295
10 2 1.947833 5.000000 39.820295
11 2 1.947833 5.000000 42.280295
12 2 1.947833 5.000000 44.740295
13 2 1.947833 5.000000 47.200295
14 2 1.947833 5.000000 49.660295
15 2 1.234126 5.000000 36.130295
16 2 1.234126 5.000000 38.590295
17 2 1.234126 5.000000 41.050295
18 2 1.234126 5.000000 43.510295
19 2 1.234126 5.000000 45.970295
20 2 1.234126 5.000000 48.430295
21 2 1.234126 5.000000 50.890295
22 2 3.375588 5.000000 34.900295
23 2 3.375588 5.000000 37.360295
24 2 3.375588 5.000000 39.820295
25 2 3.375588 5.000000 42.280295
26 2 3.375588 5.000000 44.740295
27 2 3.375588 5.000000 47.200295
28 2 3.375588 5.000000 49.660295
29 2 4.089295 5.000000 36.130295
30 2 4.089295 5.000000 38.590295
31 1 4.089295 5.000000 41.050295
32 1 4.089295 5.000000 43.510295
33 1 4.089295 5.000000 45.970295
34 1 4.089295 5.000000 48.430295
35 1 4.089295 5.000000 50.890295
36 1 6.230758 5.000000 34.900295
37 1 6.230758 5.000000 37.360295
38 1 6.230758 5.000000 39.820295
39 1 6.230758 5.000000 42.280295
40 1 6.230758 5.000000 44.740295
41 1 6.230758 5.000000 47.200295
42 1 6.230758 5.000000 49.660295
43 1 5.517051 5.000000 36.130295
44 1 5.517051 5.000000 38.590295
45 1 5.517051 5.000000 41.050295
46 1 5.517051 5.000000 43.510295
47 1 5.517051 5.000000 45.970295
48 1 5.517051 5.000000 48.430295
49 1 5.517051 5.000000 50.890295
50 1 7.658513 5.000000 34.900295
51 1 7.658513 5.000000 37.360295
52 1 7.658513 5.000000 39.820295
53 1 7.658513 5.000000 42.280295
54 1 7.658513 5.000000 44.740295
55 1 7.658513 5.000000 47.200295
56 1 7.658513 5.000000 49.660295
57 1 8.372220 5.000000 36.130295
58 1 8.372220 5.000000 38.590295
59 1 8.372220 5.000000 41.050295
60 1 8.372220 5.000000 43.510295
61 1 8.372220 5.000000 45.970295
62 1 8.372220 5.000000 48.430295
63 1 8.372220 5.000000 50.890295
64 1 10.513683 5.000000 34.900295
65 1 10.513683 5.000000 37.360295
66 1 10.513683 5.000000 39.820295
67 1 10.513683 5.000000 42.280295
68 1 10.513683 5.000000 44.740295
69 1 10.513683 5.000000 47.200295
70 1 10.513683 5.000000 49.660295
71 1 9.799976 5.000000 36.130295
72 1 9.799976 5.000000 38.590295
73 1 9.799976 5.000000 41.050295
74 1 9.799976 5.000000 43.510295
75 1 9.799976 5.000000 45.970295
76 1 9.799976 5.000000 48.430295
77 1 9.799976 5.000000 50.890295
78 1 11.941438 5.000000 34.900295
79 1 11.941438 5.000000 37.360295
80 1 11.941438 5.000000 39.820295
81 1 11.941438 5.000000 42.280295
82 1 11.941438 5.000000 44.740295
83 1 11.941438 5.000000 47.200295
84 1 11.941438 5.000000 49.660295
85 1 12.655145 5.000000 36.130295
86 1 12.655145 5.000000 38.590295
87 1 12.655145 5.000000 41.050295
88 1 12.655145 5.000000 43.510295
89 1 12.655145 5.000000 45.970295
90 1 12.655145 5.000000 48.430295
91 1 12.655145 5.000000 50.890295
92 1 14.796608 5.000000 34.900295
93 1 14.796608 5.000000 37.360295
94 1 14.796608 5.000000 39.820295
95 1 14.796608 5.000000 42.280295
96 1 14.796608 5.000000 44.740295
97 1 14.796608 5.000000 47.200295
98 1 14.796608 5.000000 49.660295
99 1 14.082901 5.000000 36.130295
100 1 14.082901 5.000000 38.590295
101 1 14.082901 5.000000 41.050295
102 1 14.082901 5.000000 43.510295
103 1 14.082901 5.000000 45.970295
104 1 14.082901 5.000000 48.430295
105 1 14.082901 5.000000 50.890295
106 1 16.224363 5.000000 34.900295
107 1 16.224363 5.000000 37.360295
108 1 16.224363 5.000000 39.820295
109 1 16.224363 5.000000 42.280295
110 1 16.224363 5.000000 44.740295
111 1 16.224363 5.000000 47.200295
112 1 16.224363 5.000000 49.660295
113 2 16.367927 5.000000 51.877795
114 2 1.804098 5.000000 51.877795
115 2 3.521379 5.000000 51.878795
116 2 6.087023 5.000000 51.877795
117 2 7.804304 5.000000 51.878795
118 2 10.369948 5.000000 51.877795
119 2 12.087229 5.000000 51.878795
120 2 14.652873 5.000000 51.877795
121 1 -0.039917 5.000000 8.565500
122 1 -0.039917 5.000000 12.826500
123 1 -0.039917 5.000000 17.087500
124 1 -0.039917 5.000000 21.348000
125 1 -0.039917 5.000000 9.986000
126 1 -0.039917 5.000000 14.246500
127 1 -0.039917 5.000000 18.507500
128 1 -0.039917 5.000000 22.768500
129 1 15.868066 5.000000 10.696000
130 1 15.868066 5.000000 14.957000
131 1 15.868066 5.000000 19.217500
132 1 15.868066 5.000000 23.478500
133 1 15.868066 5.000000 7.855500
134 1 15.868066 5.000000 12.116500
135 1 15.868066 5.000000 16.377000
136 1 15.868066 5.000000 20.638000
137 1 14.644348 5.000000 8.565500
138 1 14.644348 5.000000 12.826500
139 1 14.644348 5.000000 17.087500
140 1 14.644348 5.000000 21.348000
141 1 13.420631 5.000000 10.696000
142 1 13.420631 5.000000 14.957000
143 1 13.420631 5.000000 19.217500
144 1 13.420631 5.000000 23.478500
145 1 14.644348 5.000000 9.986000
146 1 14.644348 5.000000 14.246500
147 1 14.644348 5.000000 18.507500
148 1 14.644348 5.000000 22.768500
149 1 13.420631 5.000000 7.855500
150 1 13.420631 5.000000 12.116500
151 1 13.420631 5.000000 16.377000
152 1 13.420631 5.000000 20.638000
153 1 12.197085 5.000000 8.565500
154 1 12.197085 5.000000 12.826500
155 1 12.197085 5.000000 17.087500
156 1 12.197085 5.000000 21.348000
157 1 10.973368 5.000000 10.696000
158 1 10.973368 5.000000 14.957000
159 1 10.973368 5.000000 19.217500
160 1 10.973368 5.000000 23.478500
161 1 12.197085 5.000000 9.986000
162 1 12.197085 5.000000 14.246500
163 1 12.197085 5.000000 18.507500
164 1 12.197085 5.000000 22.768500
165 1 10.973368 5.000000 7.855500
166 1 10.973368 5.000000 12.116500
167 1 10.973368 5.000000 16.377000
168 1 10.973368 5.000000 20.638000
169 1 9.749650 5.000000 8.565500
170 1 9.749650 5.000000 12.826500
171 1 9.749650 5.000000 17.087500
172 1 9.749650 5.000000 21.348000
173 1 8.525933 5.000000 10.696000
174 1 8.525933 5.000000 14.957000
175 1 8.525933 5.000000 19.217500
176 1 8.525933 5.000000 23.478500
177 1 9.749650 5.000000 9.986000
178 1 9.749650 5.000000 14.246500
179 1 9.749650 5.000000 18.507500
180 1 9.749650 5.000000 22.768500
181 1 8.525933 5.000000 7.855500
182 1 8.525933 5.000000 12.116500
183 1 8.525933 5.000000 16.377000
184 1 8.525933 5.000000 20.638000
185 1 7.302216 5.000000 8.565500
186 1 7.302216 5.000000 12.826500
187 1 7.302216 5.000000 17.087500
188 1 7.302216 5.000000 21.348000
189 1 6.078498 5.000000 10.696000
190 1 6.078498 5.000000 14.957000
191 1 6.078498 5.000000 19.217500
192 1 6.078498 5.000000 23.478500
193 1 7.302216 5.000000 9.986000
194 1 7.302216 5.000000 14.246500
195 1 7.302216 5.000000 18.507500
196 1 7.302216 5.000000 22.768500
197 1 6.078498 5.000000 7.855500
198 1 6.078498 5.000000 12.116500
199 1 6.078498 5.000000 16.377000
200 1 6.078498 5.000000 20.638000
201 1 4.854781 5.000000 8.565500
202 1 4.854781 5.000000 12.826500
203 1 4.854781 5.000000 17.087500
204 1 4.854781 5.000000 21.348000
205 1 3.631235 5.000000 10.696000
206 1 3.631235 5.000000 14.957000
207 1 3.631235 5.000000 19.217500
208 1 3.631235 5.000000 23.478500
209 1 4.854781 5.000000 9.986000
210 1 4.854781 5.000000 14.246500
211 1 4.854781 5.000000 18.507500
212 1 4.854781 5.000000 22.768500
213 1 3.631235 5.000000 7.855500
214 1 3.631235 5.000000 12.116500
215 1 3.631235 5.000000 16.377000
216 1 3.631235 5.000000 20.638000
217 1 2.407518 5.000000 8.565500
218 1 2.407518 5.000000 12.826500
219 1 2.407518 5.000000 17.087500
220 1 2.407518 5.000000 21.348000
221 1 1.183800 5.000000 10.696000
222 1 1.183800 5.000000 14.957000
223 1 1.183800 5.000000 19.217500
224 1 1.183800 5.000000 23.478500
225 1 2.407518 5.000000 9.986000
226 1 2.407518 5.000000 14.246500
227 1 2.407518 5.000000 18.507500
228 1 2.407518 5.000000 22.768500
229 1 1.183800 5.000000 7.855500
230 1 1.183800 5.000000 12.116500
231 1 1.183800 5.000000 16.377000
232 1 1.183800 5.000000 20.638000
233 2 15.865667 5.000000 6.715500
234 2 13.423030 5.000000 6.715500
235 2 10.975766 5.000000 6.715500
236 2 8.528332 5.000000 6.715500
237 2 6.080897 5.000000 6.715500
238 2 3.633634 5.000000 6.715500
239 2 1.181402 5.000000 6.715500
240 2 5.104472 1.509259 26.056089
241 2 7.216986 7.185214 28.586324
242 2 5.046997 8.830972 23.740655
243 2 7.573889 9.047201 26.888202
244 2 13.566024 1.424091 23.721541
245 2 8.544915 2.939696 23.643102
246 2 14.799607 4.252479 25.072227
247 2 15.031842 4.420799 26.627226
248 2 10.107617 9.657528 28.422014
249 2 0.069201 1.064264 29.352136
250 2 2.380752 2.982432 30.656342
251 2 4.611959 3.953868 29.199630
252 2 5.474590 6.217310 30.819985
253 2 9.003897 3.027387 29.831926
254 2 15.911415 4.723615 28.587135
255 2 9.390703 6.008996 29.147405
256 2 8.274645 6.458625 31.079123
257 2 13.067826 7.413573 30.266725
258 2 5.431581 4.500145 34.674965
259 2 6.223018 4.707862 33.104308
260 2 9.968055 5.684270 33.555180
261 2 2.874820 7.756721 33.339001
262 2 10.260966 9.417084 31.286555
263 2 12.522407 6.359029 32.368022
264 2 13.114857 6.755841 33.368839
265 2 15.886438 7.576474 32.984291
266 2 14.910556 8.799750 32.747818
267 2 14.726687 8.929828 34.651409
268 1 0.145500 0.463302 26.294504
269 1 5.105820 2.923515 24.136335
270 1 0.169157 4.006309 25.288501
271 1 3.859153 7.721797 25.848783
272 1 5.669835 8.197899 25.887600
273 1 15.718329 0.723115 24.874721
274 1 13.972907 3.445314 25.836255
275 1 14.663042 6.164539 25.751418
276 1 11.551492 6.850937 24.929372
277 1 12.066999 7.053814 24.147682
278 1 13.214246 7.678590 24.230482
279 1 0.479360 0.405126 29.460681
280 1 6.527917 1.613883 27.649437
281 1 2.998383 4.047809 28.555680
282 1 2.266242 4.719199 28.862925
283 1 3.022189 4.863805 28.688284
284 1 10.351670 0.164459 27.345680
285 1 13.137077 1.049752 31.109761
286 1 11.348658 2.127942 31.117399
287 1 13.272397 4.848573 29.887566
288 1 15.383904 6.995389 28.850051
289 1 8.220967 7.829463 26.829589
290 1 2.906561 2.403657 33.056858
291 1 2.392467 4.225730 32.399316
292 1 0.096702 4.414723 34.571896
293 1 9.389704 6.448146 34.435587
294 1 0.014500 8.350495 31.374751
295 1 9.734969 1.860448 34.606627
296 1 14.757264 3.206813 31.533430
297 1 14.949702 3.753961 33.379491
298 1 16.451753 6.181734 32.412264
299 1 10.352128 9.069549 34.500979
300 1 16.795980 9.809472 34.699446
