300
Atoms. Timestep: 0
15537056             16.119638                     5             36.273719
15537056             16.119638                     5             38.733719
15537056             16.119638                     5             41.193719
15537056             16.119638                     5             43.653719
15537056             16.119638                     5             46.113719
15537056             16.119638                     5             48.573719
15537056             16.119638                     5              1.033719
15537056                1.1294                     5             35.043719
15537056                1.1294                     5             37.503719
15537056                1.1294                     5             39.963719
15537056                1.1294                     5             42.423719
15537056                1.1294                     5             44.883719
15537056                1.1294                     5             47.343719
15537056                1.1294                     5             49.803719
15537056              0.415694                     5             36.273719
15537056              0.415694                     5             38.733719
15537056              0.415694                     5             41.193719
15537056              0.415694                     5             43.653719
15537056              0.415694                     5             46.113719
15537056              0.415694                     5             48.573719
15537056              0.415694                     5              1.033719
15537056              2.557156                     5             35.043719
15537056              2.557156                     5             37.503719
15537056              2.557156                     5             39.963719
15537056              2.557156                     5             42.423719
15537056              2.557156                     5             44.883719
15537056              2.557156                     5             47.343719
15537056              2.557156                     5             49.803719
15537056              3.270863                     5             36.273719
15537056              3.270863                     5             38.733719
15537024              3.270863                     5             41.193719
15537024              3.270863                     5             43.653719
15537024              3.270863                     5             46.113719
15537024              3.270863                     5             48.573719
15537024              3.270863                     5              1.033719
15537024              5.412325                     5             35.043719
15537024              5.412325                     5             37.503719
15537024              5.412325                     5             39.963719
15537024              5.412325                     5             42.423719
15537024              5.412325                     5             44.883719
15537024              5.412325                     5             47.343719
15537024              5.412325                     5             49.803719
15537024              4.698619                     5             36.273719
15537024              4.698619                     5             38.733719
15537024              4.698619                     5             41.193719
15537024              4.698619                     5             43.653719
15537024              4.698619                     5             46.113719
15537024              4.698619                     5             48.573719
15537024              4.698619                     5              1.033719
15537024              6.840081                     5             35.043719
15537024              6.840081                     5             37.503719
15537024              6.840081                     5             39.963719
15537024              6.840081                     5             42.423719
15537024              6.840081                     5             44.883719
15537024              6.840081                     5             47.343719
15537024              6.840081                     5             49.803719
15537024              7.553788                     5             36.273719
15537024              7.553788                     5             38.733719
15537024              7.553788                     5             41.193719
15537024              7.553788                     5             43.653719
15537024              7.553788                     5             46.113719
15537024              7.553788                     5             48.573719
15537024              7.553788                     5              1.033719
15537024               9.69525                     5             35.043719
15537024               9.69525                     5             37.503719
15537024               9.69525                     5             39.963719
15537024               9.69525                     5             42.423719
15537024               9.69525                     5             44.883719
15537024               9.69525                     5             47.343719
15537024               9.69525                     5             49.803719
15537024              8.981544                     5             36.273719
15537024              8.981544                     5             38.733719
15537024              8.981544                     5             41.193719
15537024              8.981544                     5             43.653719
15537024              8.981544                     5             46.113719
15537024              8.981544                     5             48.573719
15537024              8.981544                     5              1.033719
15537024             11.123006                     5             35.043719
15537024             11.123006                     5             37.503719
15537024             11.123006                     5             39.963719
15537024             11.123006                     5             42.423719
15537024             11.123006                     5             44.883719
15537024             11.123006                     5             47.343719
15537024             11.123006                     5             49.803719
15537024             11.836713                     5             36.273719
15537024             11.836713                     5             38.733719
15537024             11.836713                     5             41.193719
15537024             11.836713                     5             43.653719
15537024             11.836713                     5             46.113719
15537024             11.836713                     5             48.573719
15537024             11.836713                     5              1.033719
15537024             13.978175                     5             35.043719
15537024             13.978175                     5             37.503719
15537024             13.978175                     5             39.963719
15537024             13.978175                     5             42.423719
15537024             13.978175                     5             44.883719
15537024             13.978175                     5             47.343719
15537024             13.978175                     5             49.803719
15537024             13.264469                     5             36.273719
15537024             13.264469                     5             38.733719
15537024             13.264469                     5             41.193719
15537024             13.264469                     5             43.653719
15537024             13.264469                     5             46.113719
15537024             13.264469                     5             48.573719
15537024             13.264469                     5              1.033719
15537024             15.405931                     5             35.043719
15537024             15.405931                     5             37.503719
15537024             15.405931                     5             39.963719
15537024             15.405931                     5             42.423719
15537024             15.405931                     5             44.883719
15537024             15.405931                     5             47.343719
15537024             15.405931                     5             49.803719
15537056             15.549495                     5              2.021219
15537056              0.985665                     5              2.021219
15537056              2.702947                     5              2.022219
15537056               5.26859                     5              2.021219
15537056              6.985872                     5              2.022219
15537056              9.551515                     5              2.021219
15537056             11.268797                     5              2.022219
15537056              13.83444                     5              2.021219
15537024             17.091783                     5                8.5655
15537024             17.091783                     5               12.8265
15537024             17.091783                     5               17.0875
15537024             17.091783                     5                21.348
15537024             17.091783                     5                 9.986
15537024             17.091783                     5               14.2465
15537024             17.091783                     5               18.5075
15537024             17.091783                     5               22.7685
15537024             15.868066                     5                10.696
15537024             15.868066                     5                14.957
15537024             15.868066                     5               19.2175
15537024             15.868066                     5               23.4785
15537024             15.868066                     5                7.8555
15537024             15.868066                     5               12.1165
15537024             15.868066                     5                16.377
15537024             15.868066                     5                20.638
15537024             14.644348                     5                8.5655
15537024             14.644348                     5               12.8265
15537024             14.644348                     5               17.0875
15537024             14.644348                     5                21.348
15537024             13.420631                     5                10.696
15537024             13.420631                     5                14.957
15537024             13.420631                     5               19.2175
15537024             13.420631                     5               23.4785
15537024             14.644348                     5                 9.986
15537024             14.644348                     5               14.2465
15537024             14.644348                     5               18.5075
15537024             14.644348                     5               22.7685
15537024             13.420631                     5                7.8555
15537024             13.420631                     5               12.1165
15537024             13.420631                     5                16.377
15537024             13.420631                     5                20.638
15537024             12.197085                     5                8.5655
15537024             12.197085                     5               12.8265
15537024             12.197085                     5               17.0875
15537024             12.197085                     5                21.348
15537024             10.973368                     5                10.696
15537024             10.973368                     5                14.957
15537024             10.973368                     5               19.2175
15537024             10.973368                     5               23.4785
15537024             12.197085                     5                 9.986
15537024             12.197085                     5               14.2465
15537024             12.197085                     5               18.5075
15537024             12.197085                     5               22.7685
15537024             10.973368                     5                7.8555
15537024             10.973368                     5               12.1165
15537024             10.973368                     5                16.377
15537024             10.973368                     5                20.638
15537024               9.74965                     5                8.5655
15537024               9.74965                     5               12.8265
15537024               9.74965                     5               17.0875
15537024               9.74965                     5                21.348
15537024              8.525933                     5                10.696
15537024              8.525933                     5                14.957
15537024              8.525933                     5               19.2175
15537024              8.525933                     5               23.4785
15537024               9.74965                     5                 9.986
15537024               9.74965                     5               14.2465
15537024               9.74965                     5               18.5075
15537024               9.74965                     5               22.7685
15537024              8.525933                     5                7.8555
15537024              8.525933                     5               12.1165
15537024              8.525933                     5                16.377
15537024              8.525933                     5                20.638
15537024              7.302216                     5                8.5655
15537024              7.302216                     5               12.8265
15537024              7.302216                     5               17.0875
15537024              7.302216                     5                21.348
15537024              6.078498                     5                10.696
15537024              6.078498                     5                14.957
15537024              6.078498                     5               19.2175
15537024              6.078498                     5               23.4785
15537024              7.302216                     5                 9.986
15537024              7.302216                     5               14.2465
15537024              7.302216                     5               18.5075
15537024              7.302216                     5               22.7685
15537024              6.078498                     5                7.8555
15537024              6.078498                     5               12.1165
15537024              6.078498                     5                16.377
15537024              6.078498                     5                20.638
15537024              4.854781                     5                8.5655
15537024              4.854781                     5               12.8265
15537024              4.854781                     5               17.0875
15537024              4.854781                     5                21.348
15537024              3.631235                     5                10.696
15537024              3.631235                     5                14.957
15537024              3.631235                     5               19.2175
15537024              3.631235                     5               23.4785
15537024              4.854781                     5                 9.986
15537024              4.854781                     5               14.2465
15537024              4.854781                     5               18.5075
15537024              4.854781                     5               22.7685
15537024              3.631235                     5                7.8555
15537024              3.631235                     5               12.1165
15537024              3.631235                     5                16.377
15537024              3.631235                     5                20.638
15537024              2.407518                     5                8.5655
15537024              2.407518                     5               12.8265
15537024              2.407518                     5               17.0875
15537024              2.407518                     5                21.348
15537024                1.1838                     5                10.696
15537024                1.1838                     5                14.957
15537024                1.1838                     5               19.2175
15537024                1.1838                     5               23.4785
15537024              2.407518                     5                 9.986
15537024              2.407518                     5               14.2465
15537024              2.407518                     5               18.5075
15537024              2.407518                     5               22.7685
15537024                1.1838                     5                7.8555
15537024                1.1838                     5               12.1165
15537024                1.1838                     5                16.377
15537024                1.1838                     5                20.638
15537056             15.865667                     5                6.7155
15537056              13.42303                     5                6.7155
15537056             10.975766                     5                6.7155
15537056              8.528332                     5                6.7155
15537056              6.080897                     5                6.7155
15537056              3.633634                     5                6.7155
15537056              1.181402                     5                6.7155
15537056              1.170913              0.374483             23.538087
15537056              5.376316              1.572597             26.489924
15537056              5.813203               7.23305             26.336993
15537056              0.846738              8.613181             25.445065
15537056              9.898499              0.883956             27.229925
15537056             13.900868              4.100204              26.82978
15537056              15.81653              4.187756             26.875109
15537056              8.085233              4.738562             25.612221
15537056              7.457501              9.124164             25.835866
15537056              7.500269              0.919179             28.511861
15537056              1.461743              4.987133             30.873239
15537056               8.71075              5.695884             29.006855
15537056              8.784878              9.233107             28.222911
15537056             14.871818              4.475975             30.154784
15537056             10.542832              5.801011              28.85707
15537056              9.235341              7.451134             30.489072
15537056             16.111199              9.517942             31.436203
15537056             16.749157              9.555509             27.430264
15537056                3.6267              1.275149             32.025888
15537056              2.244224              1.910365             34.894122
15537056              4.604884              4.475976             32.698537
15537056              0.910859              5.747672             32.984563
15537056               0.91206              5.841666             31.831919
15537056               9.16051               2.64626             32.899794
15537056             11.954772              2.742368             31.508265
15537056             10.469877              5.243019             32.995284
15537056             10.217052              7.337298             33.941416
15537056              14.48022              7.777048             31.744692
15537024              3.994714              0.128255             25.506707
15537024              8.260599              1.264528             26.036171
15537024              2.608889              4.234944             27.473144
15537024              0.570413              5.426715              24.99092
15537024              5.777978              7.349161             26.374159
15537024             12.560967              2.751589             27.611112
15537024             14.499335              3.713183             28.067596
15537024             13.561211               3.90608             25.495479
15537024             16.530964               4.50254             23.779752
15537024             13.262208              5.792633             25.859239
15537024             12.175734              6.390026             24.959757
15537024              8.218513              0.089335             28.260198
15537024               5.90033              3.793236             29.590917
15537024              0.990699              6.778147              30.61235
15537024              2.888598              8.318001             29.551749
15537024              8.986447              8.568735             28.177625
15537024             15.898165              0.420156             29.702405
15537024               9.75853              2.765309             29.907985
15537024             14.516115              3.303009             30.693534
15537024               9.74854              5.196119             29.750203
15537024             11.021319               7.96317             28.672655
15537024              11.00879              9.212987             29.542449
15537024              3.507685              4.927137             33.653212
15537024              3.580591              6.324875             34.849558
15537024              5.568245              6.328982             33.775342
15537024              7.787534              7.538719             32.752483
15537024              1.242281              7.996628             31.448114
15537024             12.318225              0.101411             34.885667
15537024             17.105618              2.515939             33.969843
15537024             11.202145               5.44179              31.16127
15537024             11.574867              6.415511             34.485068
15537024              13.10195              7.541624             31.761979
15537024             15.867979              7.630777             32.587558
300
Atoms. Timestep: 10
15537056      16.1145360396506                     5      36.2779807667715
15537056      16.1145360396506                     5      38.7379807667715
15537056      16.1145360396506                     5      41.1979807667715
15537056      16.1145360396506                     5      43.6579807667715
15537056      16.1145360396506                     5      46.1179807667715
15537056      16.1145360396506                     5      48.5779807667715
15537056      16.1145360396506                     5      1.03798076677147
15537056      1.12429803965055                     5      35.0479807667715
15537056      1.12429803965055                     5      37.5079807667715
15537056      1.12429803965055                     5      39.9679807667715
15537056      1.12429803965055                     5      42.4279807667715
15537056      1.12429803965055                     5      44.8879807667715
15537056      1.12429803965055                     5      47.3479807667715
15537056      1.12429803965055                     5      49.8079807667715
15537056     0.410592039650555                     5      36.2779807667715
15537056     0.410592039650555                     5      38.7379807667715
15537056     0.410592039650555                     5      41.1979807667715
15537056     0.410592039650555                     5      43.6579807667715
15537056     0.410592039650555                     5      46.1179807667715
15537056     0.410592039650555                     5      48.5779807667715
15537056     0.410592039650555                     5      1.03798076677147
15537056      2.55205403965055                     5      35.0479807667715
15537056      2.55205403965055                     5      37.5079807667715
15537056      2.55205403965055                     5      39.9679807667715
15537056      2.55205403965055                     5      42.4279807667715
15537056      2.55205403965055                     5      44.8879807667715
15537056      2.55205403965055                     5      47.3479807667715
15537056      2.55205403965055                     5      49.8079807667715
15537056      3.26576103965055                     5      36.2779807667715
15537056      3.26576103965055                     5      38.7379807667715
15537024      3.26576103965055                     5      41.1979807667715
15537024      3.26576103965055                     5      43.6579807667715
15537024      3.26576103965055                     5      46.1179807667715
15537024      3.26576103965055                     5      48.5779807667715
15537024      3.26576103965055                     5      1.03798076677147
15537024      5.40722303965056                     5      35.0479807667715
15537024      5.40722303965056                     5      37.5079807667715
15537024      5.40722303965056                     5      39.9679807667715
15537024      5.40722303965056                     5      42.4279807667715
15537024      5.40722303965056                     5      44.8879807667715
15537024      5.40722303965056                     5      47.3479807667715
15537024      5.40722303965056                     5      49.8079807667715
15537024      4.69351703965056                     5      36.2779807667715
15537024      4.69351703965056                     5      38.7379807667715
15537024      4.69351703965056                     5      41.1979807667715
15537024      4.69351703965056                     5      43.6579807667715
15537024      4.69351703965056                     5      46.1179807667715
15537024      4.69351703965056                     5      48.5779807667715
15537024      4.69351703965056                     5      1.03798076677147
15537024      6.83497903965056                     5      35.0479807667715
15537024      6.83497903965056                     5      37.5079807667715
15537024      6.83497903965056                     5      39.9679807667715
15537024      6.83497903965056                     5      42.4279807667715
15537024      6.83497903965056                     5      44.8879807667715
15537024      6.83497903965056                     5      47.3479807667715
15537024      6.83497903965056                     5      49.8079807667715
15537024      7.54868603965056                     5      36.2779807667715
15537024      7.54868603965056                     5      38.7379807667715
15537024      7.54868603965056                     5      41.1979807667715
15537024      7.54868603965056                     5      43.6579807667715
15537024      7.54868603965056                     5      46.1179807667715
15537024      7.54868603965056                     5      48.5779807667715
15537024      7.54868603965056                     5      1.03798076677147
15537024      9.69014803965055                     5      35.0479807667715
15537024      9.69014803965055                     5      37.5079807667715
15537024      9.69014803965055                     5      39.9679807667715
15537024      9.69014803965055                     5      42.4279807667715
15537024      9.69014803965055                     5      44.8879807667715
15537024      9.69014803965055                     5      47.3479807667715
15537024      9.69014803965055                     5      49.8079807667715
15537024      8.97644203965055                     5      36.2779807667715
15537024      8.97644203965055                     5      38.7379807667715
15537024      8.97644203965055                     5      41.1979807667715
15537024      8.97644203965055                     5      43.6579807667715
15537024      8.97644203965055                     5      46.1179807667715
15537024      8.97644203965055                     5      48.5779807667715
15537024      8.97644203965055                     5      1.03798076677147
15537024      11.1179040396506                     5      35.0479807667715
15537024      11.1179040396506                     5      37.5079807667715
15537024      11.1179040396506                     5      39.9679807667715
15537024      11.1179040396506                     5      42.4279807667715
15537024      11.1179040396506                     5      44.8879807667715
15537024      11.1179040396506                     5      47.3479807667715
15537024      11.1179040396506                     5      49.8079807667715
15537024      11.8316110396506                     5      36.2779807667715
15537024      11.8316110396506                     5      38.7379807667715
15537024      11.8316110396506                     5      41.1979807667715
15537024      11.8316110396506                     5      43.6579807667715
15537024      11.8316110396506                     5      46.1179807667715
15537024      11.8316110396506                     5      48.5779807667715
15537024      11.8316110396506                     5      1.03798076677147
15537024      13.9730730396506                     5      35.0479807667715
15537024      13.9730730396506                     5      37.5079807667715
15537024      13.9730730396506                     5      39.9679807667715
15537024      13.9730730396506                     5      42.4279807667715
15537024      13.9730730396506                     5      44.8879807667715
15537024      13.9730730396506                     5      47.3479807667715
15537024      13.9730730396506                     5      49.8079807667715
15537024      13.2593670396506                     5      36.2779807667715