search structure

300 atoms
2  atom types

0   17.131700 xlo xhi
0   10.000000 ylo yhi
0   50.000000 zlo zhi

Atoms

1 2 16.119638 5.000000 36.273719
2 2 16.119638 5.000000 38.733719
3 2 16.119638 5.000000 41.193719
4 2 16.119638 5.000000 43.653719
5 2 16.119638 5.000000 46.113719
6 2 16.119638 5.000000 48.573719
7 2 16.119638 5.000000 51.033719
8 2 1.129400 5.000000 35.043719
9 2 1.129400 5.000000 37.503719
10 2 1.129400 5.000000 39.963719
11 2 1.129400 5.000000 42.423719
12 2 1.129400 5.000000 44.883719
13 2 1.129400 5.000000 47.343719
14 2 1.129400 5.000000 49.803719
15 2 0.415694 5.000000 36.273719
16 2 0.415694 5.000000 38.733719
17 2 0.415694 5.000000 41.193719
18 2 0.415694 5.000000 43.653719
19 2 0.415694 5.000000 46.113719
20 2 0.415694 5.000000 48.573719
21 2 0.415694 5.000000 51.033719
22 2 2.557156 5.000000 35.043719
23 2 2.557156 5.000000 37.503719
24 2 2.557156 5.000000 39.963719
25 2 2.557156 5.000000 42.423719
26 2 2.557156 5.000000 44.883719
27 2 2.557156 5.000000 47.343719
28 2 2.557156 5.000000 49.803719
29 2 3.270863 5.000000 36.273719
30 2 3.270863 5.000000 38.733719
31 1 3.270863 5.000000 41.193719
32 1 3.270863 5.000000 43.653719
33 1 3.270863 5.000000 46.113719
34 1 3.270863 5.000000 48.573719
35 1 3.270863 5.000000 51.033719
36 1 5.412325 5.000000 35.043719
37 1 5.412325 5.000000 37.503719
38 1 5.412325 5.000000 39.963719
39 1 5.412325 5.000000 42.423719
40 1 5.412325 5.000000 44.883719
41 1 5.412325 5.000000 47.343719
42 1 5.412325 5.000000 49.803719
43 1 4.698619 5.000000 36.273719
44 1 4.698619 5.000000 38.733719
45 1 4.698619 5.000000 41.193719
46 1 4.698619 5.000000 43.653719
47 1 4.698619 5.000000 46.113719
48 1 4.698619 5.000000 48.573719
49 1 4.698619 5.000000 51.033719
50 1 6.840081 5.000000 35.043719
51 1 6.840081 5.000000 37.503719
52 1 6.840081 5.000000 39.963719
53 1 6.840081 5.000000 42.423719
54 1 6.840081 5.000000 44.883719
55 1 6.840081 5.000000 47.343719
56 1 6.840081 5.000000 49.803719
57 1 7.553788 5.000000 36.273719
58 1 7.553788 5.000000 38.733719
59 1 7.553788 5.000000 41.193719
60 1 7.553788 5.000000 43.653719
61 1 7.553788 5.000000 46.113719
62 1 7.553788 5.000000 48.573719
63 1 7.553788 5.000000 51.033719
64 1 9.695250 5.000000 35.043719
65 1 9.695250 5.000000 37.503719
66 1 9.695250 5.000000 39.963719
67 1 9.695250 5.000000 42.423719
68 1 9.695250 5.000000 44.883719
69 1 9.695250 5.000000 47.343719
70 1 9.695250 5.000000 49.803719
71 1 8.981544 5.000000 36.273719
72 1 8.981544 5.000000 38.733719
73 1 8.981544 5.000000 41.193719
74 1 8.981544 5.000000 43.653719
75 1 8.981544 5.000000 46.113719
76 1 8.981544 5.000000 48.573719
77 1 8.981544 5.000000 51.033719
78 1 11.123006 5.000000 35.043719
79 1 11.123006 5.000000 37.503719
80 1 11.123006 5.000000 39.963719
81 1 11.123006 5.000000 42.423719
82 1 11.123006 5.000000 44.883719
83 1 11.123006 5.000000 47.343719
84 1 11.123006 5.000000 49.803719
85 1 11.836713 5.000000 36.273719
86 1 11.836713 5.000000 38.733719
87 1 11.836713 5.000000 41.193719
88 1 11.836713 5.000000 43.653719
89 1 11.836713 5.000000 46.113719
90 1 11.836713 5.000000 48.573719
91 1 11.836713 5.000000 51.033719
92 1 13.978175 5.000000 35.043719
93 1 13.978175 5.000000 37.503719
94 1 13.978175 5.000000 39.963719
95 1 13.978175 5.000000 42.423719
96 1 13.978175 5.000000 44.883719
97 1 13.978175 5.000000 47.343719
98 1 13.978175 5.000000 49.803719
99 1 13.264469 5.000000 36.273719
100 1 13.264469 5.000000 38.733719
101 1 13.264469 5.000000 41.193719
102 1 13.264469 5.000000 43.653719
103 1 13.264469 5.000000 46.113719
104 1 13.264469 5.000000 48.573719
105 1 13.264469 5.000000 51.033719
106 1 15.405931 5.000000 35.043719
107 1 15.405931 5.000000 37.503719
108 1 15.405931 5.000000 39.963719
109 1 15.405931 5.000000 42.423719
110 1 15.405931 5.000000 44.883719
111 1 15.405931 5.000000 47.343719
112 1 15.405931 5.000000 49.803719
113 2 15.549495 5.000000 52.021219
114 2 0.985665 5.000000 52.021219
115 2 2.702947 5.000000 52.022219
116 2 5.268590 5.000000 52.021219
117 2 6.985872 5.000000 52.022219
118 2 9.551515 5.000000 52.021219
119 2 11.268797 5.000000 52.022219
120 2 13.834440 5.000000 52.021219
121 1 -0.039917 5.000000 8.565500
122 1 -0.039917 5.000000 12.826500
123 1 -0.039917 5.000000 17.087500
124 1 -0.039917 5.000000 21.348000
125 1 -0.039917 5.000000 9.986000
126 1 -0.039917 5.000000 14.246500
127 1 -0.039917 5.000000 18.507500
128 1 -0.039917 5.000000 22.768500
129 1 15.868066 5.000000 10.696000
130 1 15.868066 5.000000 14.957000
131 1 15.868066 5.000000 19.217500
132 1 15.868066 5.000000 23.478500
133 1 15.868066 5.000000 7.855500
134 1 15.868066 5.000000 12.116500
135 1 15.868066 5.000000 16.377000
136 1 15.868066 5.000000 20.638000
137 1 14.644348 5.000000 8.565500
138 1 14.644348 5.000000 12.826500
139 1 14.644348 5.000000 17.087500
140 1 14.644348 5.000000 21.348000
141 1 13.420631 5.000000 10.696000
142 1 13.420631 5.000000 14.957000
143 1 13.420631 5.000000 19.217500
144 1 13.420631 5.000000 23.478500
145 1 14.644348 5.000000 9.986000
146 1 14.644348 5.000000 14.246500
147 1 14.644348 5.000000 18.507500
148 1 14.644348 5.000000 22.768500
149 1 13.420631 5.000000 7.855500
150 1 13.420631 5.000000 12.116500
151 1 13.420631 5.000000 16.377000
152 1 13.420631 5.000000 20.638000
153 1 12.197085 5.000000 8.565500
154 1 12.197085 5.000000 12.826500
155 1 12.197085 5.000000 17.087500
156 1 12.197085 5.000000 21.348000
157 1 10.973368 5.000000 10.696000
158 1 10.973368 5.000000 14.957000
159 1 10.973368 5.000000 19.217500
160 1 10.973368 5.000000 23.478500
161 1 12.197085 5.000000 9.986000
162 1 12.197085 5.000000 14.246500
163 1 12.197085 5.000000 18.507500
164 1 12.197085 5.000000 22.768500
165 1 10.973368 5.000000 7.855500
166 1 10.973368 5.000000 12.116500
167 1 10.973368 5.000000 16.377000
168 1 10.973368 5.000000 20.638000
169 1 9.749650 5.000000 8.565500
170 1 9.749650 5.000000 12.826500
171 1 9.749650 5.000000 17.087500
172 1 9.749650 5.000000 21.348000
173 1 8.525933 5.000000 10.696000
174 1 8.525933 5.000000 14.957000
175 1 8.525933 5.000000 19.217500
176 1 8.525933 5.000000 23.478500
177 1 9.749650 5.000000 9.986000
178 1 9.749650 5.000000 14.246500
179 1 9.749650 5.000000 18.507500
180 1 9.749650 5.000000 22.768500
181 1 8.525933 5.000000 7.855500
182 1 8.525933 5.000000 12.116500
183 1 8.525933 5.000000 16.377000
184 1 8.525933 5.000000 20.638000
185 1 7.302216 5.000000 8.565500
186 1 7.302216 5.000000 12.826500
187 1 7.302216 5.000000 17.087500
188 1 7.302216 5.000000 21.348000
189 1 6.078498 5.000000 10.696000
190 1 6.078498 5.000000 14.957000
191 1 6.078498 5.000000 19.217500
192 1 6.078498 5.000000 23.478500
193 1 7.302216 5.000000 9.986000
194 1 7.302216 5.000000 14.246500
195 1 7.302216 5.000000 18.507500
196 1 7.302216 5.000000 22.768500
197 1 6.078498 5.000000 7.855500
198 1 6.078498 5.000000 12.116500
199 1 6.078498 5.000000 16.377000
200 1 6.078498 5.000000 20.638000
201 1 4.854781 5.000000 8.565500
202 1 4.854781 5.000000 12.826500
203 1 4.854781 5.000000 17.087500
204 1 4.854781 5.000000 21.348000
205 1 3.631235 5.000000 10.696000
206 1 3.631235 5.000000 14.957000
207 1 3.631235 5.000000 19.217500
208 1 3.631235 5.000000 23.478500
209 1 4.854781 5.000000 9.986000
210 1 4.854781 5.000000 14.246500
211 1 4.854781 5.000000 18.507500
212 1 4.854781 5.000000 22.768500
213 1 3.631235 5.000000 7.855500
214 1 3.631235 5.000000 12.116500
215 1 3.631235 5.000000 16.377000
216 1 3.631235 5.000000 20.638000
217 1 2.407518 5.000000 8.565500
218 1 2.407518 5.000000 12.826500
219 1 2.407518 5.000000 17.087500
220 1 2.407518 5.000000 21.348000
221 1 1.183800 5.000000 10.696000
222 1 1.183800 5.000000 14.957000
223 1 1.183800 5.000000 19.217500
224 1 1.183800 5.000000 23.478500
225 1 2.407518 5.000000 9.986000
226 1 2.407518 5.000000 14.246500
227 1 2.407518 5.000000 18.507500
228 1 2.407518 5.000000 22.768500
229 1 1.183800 5.000000 7.855500
230 1 1.183800 5.000000 12.116500
231 1 1.183800 5.000000 16.377000
232 1 1.183800 5.000000 20.638000
233 2 15.865667 5.000000 6.715500
234 2 13.423030 5.000000 6.715500
235 2 10.975766 5.000000 6.715500
236 2 8.528332 5.000000 6.715500
237 2 6.080897 5.000000 6.715500
238 2 3.633634 5.000000 6.715500
239 2 1.181402 5.000000 6.715500
240 2 1.170913 0.374483 23.538087
241 2 5.376316 1.572597 26.489924
242 2 5.813203 7.233050 26.336993
243 2 0.846738 8.613181 25.445065
244 2 9.898499 0.883956 27.229925
245 2 13.900868 4.100204 26.829780
246 2 15.816530 4.187756 26.875109
247 2 8.085233 4.738562 25.612221
248 2 7.457501 9.124164 25.835866
249 2 7.500269 0.919179 28.511861
250 2 1.461743 4.987133 30.873239
251 2 8.710750 5.695884 29.006855
252 2 8.784878 9.233107 28.222911
253 2 14.871818 4.475975 30.154784
254 2 10.542832 5.801011 28.857070
255 2 9.235341 7.451134 30.489072
256 2 16.111199 9.517942 31.436203
257 2 16.749157 9.555509 27.430264
258 2 3.626700 1.275149 32.025888
259 2 2.244224 1.910365 34.894122
260 2 4.604884 4.475976 32.698537
261 2 0.910859 5.747672 32.984563
262 2 0.912060 5.841666 31.831919
263 2 9.160510 2.646260 32.899794
264 2 11.954772 2.742368 31.508265
265 2 10.469877 5.243019 32.995284
266 2 10.217052 7.337298 33.941416
267 2 14.480220 7.777048 31.744692
268 1 3.994714 0.128255 25.506707
269 1 8.260599 1.264528 26.036171
270 1 2.608889 4.234944 27.473144
271 1 0.570413 5.426715 24.990920
272 1 5.777978 7.349161 26.374159
273 1 12.560967 2.751589 27.611112
274 1 14.499335 3.713183 28.067596
275 1 13.561211 3.906080 25.495479
276 1 16.530964 4.502540 23.779752
277 1 13.262208 5.792633 25.859239
278 1 12.175734 6.390026 24.959757
279 1 8.218513 0.089335 28.260198
280 1 5.900330 3.793236 29.590917
281 1 0.990699 6.778147 30.612350
282 1 2.888598 8.318001 29.551749
283 1 8.986447 8.568735 28.177625
284 1 15.898165 0.420156 29.702405
285 1 9.758530 2.765309 29.907985
286 1 14.516115 3.303009 30.693534
287 1 9.748540 5.196119 29.750203
288 1 11.021319 7.963170 28.672655
289 1 11.008790 9.212987 29.542449
290 1 3.507685 4.927137 33.653212
291 1 3.580591 6.324875 34.849558
292 1 5.568245 6.328982 33.775342
293 1 7.787534 7.538719 32.752483
294 1 1.242281 7.996628 31.448114
295 1 12.318225 0.101411 34.885667
296 1 17.105618 2.515939 33.969843
297 1 11.202145 5.441790 31.161270
298 1 11.574867 6.415511 34.485068
299 1 13.101950 7.541624 31.761979
300 1 15.867979 7.630777 32.587558
