300
Atoms. Timestep: 0
431854496             16.707669                     5             34.777555
431854496             16.707669                     5             37.237555
431854496             16.707669                     5             39.697555
431854496             16.707669                     5             42.157555
431854496             16.707669                     5             44.617555
431854496             16.707669                     5             47.077555
431854496             16.707669                     5             49.537555
431854496              1.717432                     5             33.547555
431854496              1.717432                     5             36.007555
431854496              1.717432                     5             38.467555
431854496              1.717432                     5             40.927555
431854496              1.717432                     5             43.387555
431854496              1.717432                     5             45.847555
431854496              1.717432                     5             48.307555
431854496              1.003725                     5             34.777555
431854496              1.003725                     5             37.237555
431854496              1.003725                     5             39.697555
431854496              1.003725                     5             42.157555
431854496              1.003725                     5             44.617555
431854496              1.003725                     5             47.077555
431854496              1.003725                     5             49.537555
431854496              3.145187                     5             33.547555
431854496              3.145187                     5             36.007555
431854496              3.145187                     5             38.467555
431854496              3.145187                     5             40.927555
431854496              3.145187                     5             43.387555
431854496              3.145187                     5             45.847555
431854496              3.145187                     5             48.307555
431854496              3.858894                     5             34.777555
431854496              3.858894                     5             37.237555
431854464              3.858894                     5             39.697555
431854464              3.858894                     5             42.157555
431854464              3.858894                     5             44.617555
431854464              3.858894                     5             47.077555
431854464              3.858894                     5             49.537555
431854464              6.000357                     5             33.547555
431854464              6.000357                     5             36.007555
431854464              6.000357                     5             38.467555
431854464              6.000357                     5             40.927555
431854464              6.000357                     5             43.387555
431854464              6.000357                     5             45.847555
431854464              6.000357                     5             48.307555
431854464               5.28665                     5             34.777555
431854464               5.28665                     5             37.237555
431854464               5.28665                     5             39.697555
431854464               5.28665                     5             42.157555
431854464               5.28665                     5             44.617555
431854464               5.28665                     5             47.077555
431854464               5.28665                     5             49.537555
431854464              7.428112                     5             33.547555
431854464              7.428112                     5             36.007555
431854464              7.428112                     5             38.467555
431854464              7.428112                     5             40.927555
431854464              7.428112                     5             43.387555
431854464              7.428112                     5             45.847555
431854464              7.428112                     5             48.307555
431854464              8.141819                     5             34.777555
431854464              8.141819                     5             37.237555
431854464              8.141819                     5             39.697555
431854464              8.141819                     5             42.157555
431854464              8.141819                     5             44.617555
431854464              8.141819                     5             47.077555
431854464              8.141819                     5             49.537555
431854464             10.283282                     5             33.547555
431854464             10.283282                     5             36.007555
431854464             10.283282                     5             38.467555
431854464             10.283282                     5             40.927555
431854464             10.283282                     5             43.387555
431854464             10.283282                     5             45.847555
431854464             10.283282                     5             48.307555
431854464              9.569575                     5             34.777555
431854464              9.569575                     5             37.237555
431854464              9.569575                     5             39.697555
431854464              9.569575                     5             42.157555
431854464              9.569575                     5             44.617555
431854464              9.569575                     5             47.077555
431854464              9.569575                     5             49.537555
431854464             11.711037                     5             33.547555
431854464             11.711037                     5             36.007555
431854464             11.711037                     5             38.467555
431854464             11.711037                     5             40.927555
431854464             11.711037                     5             43.387555
431854464             11.711037                     5             45.847555
431854464             11.711037                     5             48.307555
431854464             12.424744                     5             34.777555
431854464             12.424744                     5             37.237555
431854464             12.424744                     5             39.697555
431854464             12.424744                     5             42.157555
431854464             12.424744                     5             44.617555
431854464             12.424744                     5             47.077555
431854464             12.424744                     5             49.537555
431854464             14.566207                     5             33.547555
431854464             14.566207                     5             36.007555
431854464             14.566207                     5             38.467555
431854464             14.566207                     5             40.927555
431854464             14.566207                     5             43.387555
431854464             14.566207                     5             45.847555
431854464             14.566207                     5             48.307555
431854464               13.8525                     5             34.777555
431854464               13.8525                     5             37.237555
431854464               13.8525                     5             39.697555
431854464               13.8525                     5             42.157555
431854464               13.8525                     5             44.617555
431854464               13.8525                     5             47.077555
431854464               13.8525                     5             49.537555
431854464             15.993962                     5             33.547555
431854464             15.993962                     5             36.007555
431854464             15.993962                     5             38.467555
431854464             15.993962                     5             40.927555
431854464             15.993962                     5             43.387555
431854464             15.993962                     5             45.847555
431854464             15.993962                     5             48.307555
431854496             16.137526                     5     0.525055000000002
431854496              1.573697                     5     0.525055000000002
431854496              3.290978                     5     0.526054999999999
431854496              5.856622                     5     0.525055000000002
431854496              7.573903                     5     0.526054999999999
431854496             10.139547                     5     0.525055000000002
431854496             11.856828                     5     0.526054999999999
431854496             14.422472                     5     0.525055000000002
431854464             17.091783                     5                8.5655
431854464             17.091783                     5               12.8265
431854464             17.091783                     5               17.0875
431854464             17.091783                     5                21.348
431854464             17.091783                     5                 9.986
431854464             17.091783                     5               14.2465
431854464             17.091783                     5               18.5075
431854464             17.091783                     5               22.7685
431854464             15.868066                     5                10.696
431854464             15.868066                     5                14.957
431854464             15.868066                     5               19.2175
431854464             15.868066                     5               23.4785
431854464             15.868066                     5                7.8555
431854464             15.868066                     5               12.1165
431854464             15.868066                     5                16.377
431854464             15.868066                     5                20.638
431854464             14.644348                     5                8.5655
431854464             14.644348                     5               12.8265
431854464             14.644348                     5               17.0875
431854464             14.644348                     5                21.348
431854464             13.420631                     5                10.696
431854464             13.420631                     5                14.957
431854464             13.420631                     5               19.2175
431854464             13.420631                     5               23.4785
431854464             14.644348                     5                 9.986
431854464             14.644348                     5               14.2465
431854464             14.644348                     5               18.5075
431854464             14.644348                     5               22.7685
431854464             13.420631                     5                7.8555
431854464             13.420631                     5               12.1165
431854464             13.420631                     5                16.377
431854464             13.420631                     5                20.638
431854464             12.197085                     5                8.5655
431854464             12.197085                     5               12.8265
431854464             12.197085                     5               17.0875
431854464             12.197085                     5                21.348
431854464             10.973368                     5                10.696
431854464             10.973368                     5                14.957
431854464             10.973368                     5               19.2175
431854464             10.973368                     5               23.4785
431854464             12.197085                     5                 9.986
431854464             12.197085                     5               14.2465
431854464             12.197085                     5               18.5075
431854464             12.197085                     5               22.7685
431854464             10.973368                     5                7.8555
431854464             10.973368                     5               12.1165
431854464             10.973368                     5                16.377
431854464             10.973368                     5                20.638
431854464               9.74965                     5                8.5655
431854464               9.74965                     5               12.8265
431854464               9.74965                     5               17.0875
431854464               9.74965                     5                21.348
431854464              8.525933                     5                10.696
431854464              8.525933                     5                14.957
431854464              8.525933                     5               19.2175
431854464              8.525933                     5               23.4785
431854464               9.74965                     5                 9.986
431854464               9.74965                     5               14.2465
431854464               9.74965                     5               18.5075
431854464               9.74965                     5               22.7685
431854464              8.525933                     5                7.8555
431854464              8.525933                     5               12.1165
431854464              8.525933                     5                16.377
431854464              8.525933                     5                20.638
431854464              7.302216                     5                8.5655
431854464              7.302216                     5               12.8265
431854464              7.302216                     5               17.0875
431854464              7.302216                     5                21.348
431854464              6.078498                     5                10.696
431854464              6.078498                     5                14.957
431854464              6.078498                     5               19.2175
431854464              6.078498                     5               23.4785
431854464              7.302216                     5                 9.986
431854464              7.302216                     5               14.2465
431854464              7.302216                     5               18.5075
431854464              7.302216                     5               22.7685
431854464              6.078498                     5                7.8555
431854464              6.078498                     5               12.1165
431854464              6.078498                     5                16.377
431854464              6.078498                     5                20.638
431854464              4.854781                     5                8.5655
431854464              4.854781                     5               12.8265
431854464              4.854781                     5               17.0875
431854464              4.854781                     5                21.348
431854464              3.631235                     5                10.696
431854464              3.631235                     5                14.957
431854464              3.631235                     5               19.2175
431854464              3.631235                     5               23.4785
431854464              4.854781                     5                 9.986
431854464              4.854781                     5               14.2465
431854464              4.854781                     5               18.5075
431854464              4.854781                     5               22.7685
431854464              3.631235                     5                7.8555
431854464              3.631235                     5               12.1165
431854464              3.631235                     5                16.377
431854464              3.631235                     5                20.638
431854464              2.407518                     5                8.5655
431854464              2.407518                     5               12.8265
431854464              2.407518                     5               17.0875
431854464              2.407518                     5                21.348
431854464                1.1838                     5                10.696
431854464                1.1838                     5                14.957
431854464                1.1838                     5               19.2175
431854464                1.1838                     5               23.4785
431854464              2.407518                     5                 9.986
431854464              2.407518                     5               14.2465
431854464              2.407518                     5               18.5075
431854464              2.407518                     5               22.7685
431854464                1.1838                     5                7.8555
431854464                1.1838                     5               12.1165
431854464                1.1838                     5                16.377
431854464                1.1838                     5                20.638
431854496             15.865667                     5                6.7155
431854496              13.42303                     5                6.7155
431854496             10.975766                     5                6.7155
431854496              8.528332                     5                6.7155
431854496              6.080897                     5                6.7155
431854496              3.633634                     5                6.7155
431854496              1.181402                     5                6.7155
431854496              7.728514              2.252128             23.594705
431854496              9.694865              0.805265              25.69825
431854496             10.423579              9.370233             24.341767
431854496             14.100292              8.685976             26.510379
431854496              3.728877              1.771851             24.332944
431854496              1.889154              1.265753             25.429333
431854496             10.979265              9.758439             23.739001
431854496              2.548808              5.419183             26.319013
431854496             13.173801              7.111803             23.947172
431854496              0.139423              8.214298             27.591759
431854496              4.713003              9.088951             28.302441
431854496              9.384136                7.2455             30.669566
431854496              3.712341              1.594496             28.121958
431854496               4.12251              5.747292              28.22651
431854496              6.272238              8.104562             28.524106
431854496             14.307212              6.322687             27.198337
431854496             14.358208              7.361599              29.28185
431854496              8.415612              8.399783             28.924798
431854496              4.341513              5.671326             31.784082
431854496              7.232505              0.324776             33.471055
431854496             16.970123              1.852304             32.083968
431854496              3.788689                6.2577             33.471055
431854496              7.018498               4.65636             31.864332
431854496              8.009417              1.417168             33.471055
431854496              3.421528              4.792626             29.319802
431854496              7.418074              6.952379             28.636713
431854496              9.463044              5.577845              32.17913
431854496              8.973867                7.0886             30.427855
431854464              6.057532              4.843598                  23.5
431854464               0.37166              9.755031              26.11148
431854464              15.08381               0.67744             26.655415
431854464             14.528963              1.076258             26.725828
431854464              9.705679              1.266385             25.245741
431854464              9.098699              4.302982             23.555572
431854464             15.234903              3.229912             25.841124
431854464             15.632035              3.068511             24.736005
431854464              9.535568              9.370883             25.007714
431854464             15.222838              8.533101             24.826726
431854464              0.783791              8.972976             26.719183
431854464              0.441364              7.932956              28.07585
431854464             15.922119              1.644327             31.643505
431854464              3.413051              2.916425                  23.5
431854464               0.06248              6.443565             28.554756
431854464              5.224237              9.690295             24.357122
431854464             13.389851               1.12968             30.172166
431854464             12.555967              6.986282             30.253395
431854464               0.74713               2.33042             27.098564
431854464              2.809362              3.965885             27.458869
431854464              6.878517              4.737505              26.98479
431854464              0.199838              7.879673             27.574879
431854464               0.13016              2.678629             33.088168
431854464              7.568886              5.772381             31.835807
431854464              8.470707              9.397386             31.448211
431854464             16.234011              5.541174             30.793623
431854464              14.59378              0.328261             28.532455
431854464             15.342924              9.998293             33.471055
431854464              8.069921              2.766104             29.307511
431854464              1.624155              5.118025             29.604939
431854464              5.762197              7.195808             33.471055
431854464              9.657149              0.856047             33.471055
431854464              7.571782              9.487744             33.471055
300
Atoms. Timestep: 10
431854496      16.7072745852587                     5      34.7770525784047
431854496      16.7072745852587                     5      37.2370525784047
431854496      16.7072745852587                     5      39.6970525784047
431854496      16.7072745852587                     5      42.1570525784047
431854496      16.7072745852587                     5      44.6170525784047
431854496      16.7072745852587                     5      47.0770525784047
431854496      16.7072745852587                     5      49.5370525784047
431854496      1.71703758525868                     5      33.5470525784047
431854496      1.71703758525868                     5      36.0070525784047
431854496      1.71703758525868                     5      38.4670525784047
431854496      1.71703758525868                     5      40.9270525784047
431854496      1.71703758525868                     5      43.3870525784047
431854496      1.71703758525868                     5      45.8470525784047
431854496      1.71703758525868                     5      48.3070525784047
431854496      1.00333058525868                     5      34.7770525784047
431854496      1.00333058525868                     5      37.2370525784047
431854496      1.00333058525868                     5      39.6970525784047
431854496      1.00333058525868                     5      42.1570525784047
431854496      1.00333058525868                     5      44.6170525784047
431854496      1.00333058525868                     5      47.0770525784047
431854496      1.00333058525868                     5      49.5370525784047
431854496      3.14479258525868                     5      33.5470525784047
431854496      3.14479258525868                     5      36.0070525784047
431854496      3.14479258525868                     5      38.4670525784047
431854496      3.14479258525868                     5      40.9270525784047
431854496      3.14479258525868                     5      43.3870525784047
431854496      3.14479258525868                     5      45.8470525784047
431854496      3.14479258525868                     5      48.3070525784047
431854496      3.85849958525868                     5      34.7770525784047
431854496      3.85849958525868                     5      37.2370525784047
431854464      3.85849958525868                     5      39.6970525784047
431854464      3.85849958525868                     5      42.1570525784047
431854464      3.85849958525868                     5      44.6170525784047
431854464      3.85849958525868                     5      47.0770525784047
431854464      3.85849958525868                     5      49.5370525784047
431854464      5.99996258525868                     5      33.5470525784047
431854464      5.99996258525868                     5      36.0070525784047
431854464      5.99996258525868                     5      38.4670525784047
431854464      5.99996258525868                     5      40.9270525784047
431854464      5.99996258525868                     5      43.3870525784047
431854464      5.99996258525868                     5      45.8470525784047
431854464      5.99996258525868                     5      48.3070525784047
431854464      5.28625558525868                     5      34.7770525784047
431854464      5.28625558525868                     5      37.2370525784047
431854464      5.28625558525868                     5      39.6970525784047
431854464      5.28625558525868                     5      42.1570525784047
431854464      5.28625558525868                     5      44.6170525784047
431854464      5.28625558525868                     5      47.0770525784047
431854464      5.28625558525868                     5      49.5370525784047
431854464      7.42771758525868                     5      33.5470525784047
431854464      7.42771758525868                     5      36.0070525784047
431854464      7.42771758525868                     5      38.4670525784047
431854464      7.42771758525868                     5      40.9270525784047
431854464      7.42771758525868                     5      43.3870525784047
431854464      7.42771758525868                     5      45.8470525784047
431854464      7.42771758525868                     5      48.3070525784047
431854464      8.14142458525868                     5      34.7770525784047
431854464      8.14142458525868                     5      37.2370525784047
431854464      8.14142458525868                     5      39.6970525784047
431854464      8.14142458525868                     5      42.1570525784047
431854464      8.14142458525868                     5      44.6170525784047
431854464      8.14142458525868                     5      47.0770525784047
431854464      8.14142458525868                     5      49.5370525784047
431854464      10.2828875852587                     5      33.5470525784047
431854464      10.2828875852587                     5      36.0070525784047
431854464      10.2828875852587                     5      38.4670525784047
431854464      10.2828875852587                     5      40.9270525784047
431854464      10.2828875852587                     5      43.3870525784047
431854464      10.2828875852587                     5      45.8470525784047
431854464      10.2828875852587                     5      48.3070525784047
431854464      9.56918058525868                     5      34.7770525784047
431854464      9.56918058525868                     5      37.2370525784047
431854464      9.56918058525868                     5      39.6970525784047
431854464      9.56918058525868                     5      42.1570525784047
431854464      9.56918058525868                     5      44.6170525784047
431854464      9.56918058525868                     5      47.0770525784047
431854464      9.56918058525868                     5      49.5370525784047
431854464      11.7106425852587                     5      33.5470525784047
431854464      11.7106425852587                     5      36.0070525784047
431854464      11.7106425852587                     5      38.4670525784047
431854464      11.7106425852587                     5      40.9270525784047
431854464      11.7106425852587                     5      43.3870525784047
431854464      11.7106425852587                     5      45.8470525784047
431854464      11.7106425852587                     5      48.3070525784047
431854464      12.4243495852587                     5      34.7770525784047
431854464      12.4243495852587                     5      37.2370525784047
431854464      12.4243495852587                     5      39.6970525784047
431854464      12.4243495852587                     5      42.1570525784047
431854464      12.4243495852587                     5      44.6170525784047
431854464      12.4243495852587                     5      47.0770525784047
431854464      12.4243495852587                     5      49.5370525784047
431854464      14.5658125852587                     5      33.5470525784047
431854464      14.5658125852587                     5      36.0070525784047
431854464      14.5658125852587                     5      38.4670525784047