search structure

300 atoms
2  atom types

0   17.131700 xlo xhi
0   10.000000 ylo yhi
0   50.000000 zlo zhi

Atoms

1 2 16.707669 5.000000 34.777555
2 2 16.707669 5.000000 37.237555
3 2 16.707669 5.000000 39.697555
4 2 16.707669 5.000000 42.157555
5 2 16.707669 5.000000 44.617555
6 2 16.707669 5.000000 47.077555
7 2 16.707669 5.000000 49.537555
8 2 1.717432 5.000000 33.547555
9 2 1.717432 5.000000 36.007555
10 2 1.717432 5.000000 38.467555
11 2 1.717432 5.000000 40.927555
12 2 1.717432 5.000000 43.387555
13 2 1.717432 5.000000 45.847555
14 2 1.717432 5.000000 48.307555
15 2 1.003725 5.000000 34.777555
16 2 1.003725 5.000000 37.237555
17 2 1.003725 5.000000 39.697555
18 2 1.003725 5.000000 42.157555
19 2 1.003725 5.000000 44.617555
20 2 1.003725 5.000000 47.077555
21 2 1.003725 5.000000 49.537555
22 2 3.145187 5.000000 33.547555
23 2 3.145187 5.000000 36.007555
24 2 3.145187 5.000000 38.467555
25 2 3.145187 5.000000 40.927555
26 2 3.145187 5.000000 43.387555
27 2 3.145187 5.000000 45.847555
28 2 3.145187 5.000000 48.307555
29 2 3.858894 5.000000 34.777555
30 2 3.858894 5.000000 37.237555
31 1 3.858894 5.000000 39.697555
32 1 3.858894 5.000000 42.157555
33 1 3.858894 5.000000 44.617555
34 1 3.858894 5.000000 47.077555
35 1 3.858894 5.000000 49.537555
36 1 6.000357 5.000000 33.547555
37 1 6.000357 5.000000 36.007555
38 1 6.000357 5.000000 38.467555
39 1 6.000357 5.000000 40.927555
40 1 6.000357 5.000000 43.387555
41 1 6.000357 5.000000 45.847555
42 1 6.000357 5.000000 48.307555
43 1 5.286650 5.000000 34.777555
44 1 5.286650 5.000000 37.237555
45 1 5.286650 5.000000 39.697555
46 1 5.286650 5.000000 42.157555
47 1 5.286650 5.000000 44.617555
48 1 5.286650 5.000000 47.077555
49 1 5.286650 5.000000 49.537555
50 1 7.428112 5.000000 33.547555
51 1 7.428112 5.000000 36.007555
52 1 7.428112 5.000000 38.467555
53 1 7.428112 5.000000 40.927555
54 1 7.428112 5.000000 43.387555
55 1 7.428112 5.000000 45.847555
56 1 7.428112 5.000000 48.307555
57 1 8.141819 5.000000 34.777555
58 1 8.141819 5.000000 37.237555
59 1 8.141819 5.000000 39.697555
60 1 8.141819 5.000000 42.157555
61 1 8.141819 5.000000 44.617555
62 1 8.141819 5.000000 47.077555
63 1 8.141819 5.000000 49.537555
64 1 10.283282 5.000000 33.547555
65 1 10.283282 5.000000 36.007555
66 1 10.283282 5.000000 38.467555
67 1 10.283282 5.000000 40.927555
68 1 10.283282 5.000000 43.387555
69 1 10.283282 5.000000 45.847555
70 1 10.283282 5.000000 48.307555
71 1 9.569575 5.000000 34.777555
72 1 9.569575 5.000000 37.237555
73 1 9.569575 5.000000 39.697555
74 1 9.569575 5.000000 42.157555
75 1 9.569575 5.000000 44.617555
76 1 9.569575 5.000000 47.077555
77 1 9.569575 5.000000 49.537555
78 1 11.711037 5.000000 33.547555
79 1 11.711037 5.000000 36.007555
80 1 11.711037 5.000000 38.467555
81 1 11.711037 5.000000 40.927555
82 1 11.711037 5.000000 43.387555
83 1 11.711037 5.000000 45.847555
84 1 11.711037 5.000000 48.307555
85 1 12.424744 5.000000 34.777555
86 1 12.424744 5.000000 37.237555
87 1 12.424744 5.000000 39.697555
88 1 12.424744 5.000000 42.157555
89 1 12.424744 5.000000 44.617555
90 1 12.424744 5.000000 47.077555
91 1 12.424744 5.000000 49.537555
92 1 14.566207 5.000000 33.547555
93 1 14.566207 5.000000 36.007555
94 1 14.566207 5.000000 38.467555
95 1 14.566207 5.000000 40.927555
96 1 14.566207 5.000000 43.387555
97 1 14.566207 5.000000 45.847555
98 1 14.566207 5.000000 48.307555
99 1 13.852500 5.000000 34.777555
100 1 13.852500 5.000000 37.237555
101 1 13.852500 5.000000 39.697555
102 1 13.852500 5.000000 42.157555
103 1 13.852500 5.000000 44.617555
104 1 13.852500 5.000000 47.077555
105 1 13.852500 5.000000 49.537555
106 1 15.993962 5.000000 33.547555
107 1 15.993962 5.000000 36.007555
108 1 15.993962 5.000000 38.467555
109 1 15.993962 5.000000 40.927555
110 1 15.993962 5.000000 43.387555
111 1 15.993962 5.000000 45.847555
112 1 15.993962 5.000000 48.307555
113 2 16.137526 5.000000 50.525055
114 2 1.573697 5.000000 50.525055
115 2 3.290978 5.000000 50.526055
116 2 5.856622 5.000000 50.525055
117 2 7.573903 5.000000 50.526055
118 2 10.139547 5.000000 50.525055
119 2 11.856828 5.000000 50.526055
120 2 14.422472 5.000000 50.525055
121 1 -0.039917 5.000000 8.565500
122 1 -0.039917 5.000000 12.826500
123 1 -0.039917 5.000000 17.087500
124 1 -0.039917 5.000000 21.348000
125 1 -0.039917 5.000000 9.986000
126 1 -0.039917 5.000000 14.246500
127 1 -0.039917 5.000000 18.507500
128 1 -0.039917 5.000000 22.768500
129 1 15.868066 5.000000 10.696000
130 1 15.868066 5.000000 14.957000
131 1 15.868066 5.000000 19.217500
132 1 15.868066 5.000000 23.478500
133 1 15.868066 5.000000 7.855500
134 1 15.868066 5.000000 12.116500
135 1 15.868066 5.000000 16.377000
136 1 15.868066 5.000000 20.638000
137 1 14.644348 5.000000 8.565500
138 1 14.644348 5.000000 12.826500
139 1 14.644348 5.000000 17.087500
140 1 14.644348 5.000000 21.348000
141 1 13.420631 5.000000 10.696000
142 1 13.420631 5.000000 14.957000
143 1 13.420631 5.000000 19.217500
144 1 13.420631 5.000000 23.478500
145 1 14.644348 5.000000 9.986000
146 1 14.644348 5.000000 14.246500
147 1 14.644348 5.000000 18.507500
148 1 14.644348 5.000000 22.768500
149 1 13.420631 5.000000 7.855500
150 1 13.420631 5.000000 12.116500
151 1 13.420631 5.000000 16.377000
152 1 13.420631 5.000000 20.638000
153 1 12.197085 5.000000 8.565500
154 1 12.197085 5.000000 12.826500
155 1 12.197085 5.000000 17.087500
156 1 12.197085 5.000000 21.348000
157 1 10.973368 5.000000 10.696000
158 1 10.973368 5.000000 14.957000
159 1 10.973368 5.000000 19.217500
160 1 10.973368 5.000000 23.478500
161 1 12.197085 5.000000 9.986000
162 1 12.197085 5.000000 14.246500
163 1 12.197085 5.000000 18.507500
164 1 12.197085 5.000000 22.768500
165 1 10.973368 5.000000 7.855500
166 1 10.973368 5.000000 12.116500
167 1 10.973368 5.000000 16.377000
168 1 10.973368 5.000000 20.638000
169 1 9.749650 5.000000 8.565500
170 1 9.749650 5.000000 12.826500
171 1 9.749650 5.000000 17.087500
172 1 9.749650 5.000000 21.348000
173 1 8.525933 5.000000 10.696000
174 1 8.525933 5.000000 14.957000
175 1 8.525933 5.000000 19.217500
176 1 8.525933 5.000000 23.478500
177 1 9.749650 5.000000 9.986000
178 1 9.749650 5.000000 14.246500
179 1 9.749650 5.000000 18.507500
180 1 9.749650 5.000000 22.768500
181 1 8.525933 5.000000 7.855500
182 1 8.525933 5.000000 12.116500
183 1 8.525933 5.000000 16.377000
184 1 8.525933 5.000000 20.638000
185 1 7.302216 5.000000 8.565500
186 1 7.302216 5.000000 12.826500
187 1 7.302216 5.000000 17.087500
188 1 7.302216 5.000000 21.348000
189 1 6.078498 5.000000 10.696000
190 1 6.078498 5.000000 14.957000
191 1 6.078498 5.000000 19.217500
192 1 6.078498 5.000000 23.478500
193 1 7.302216 5.000000 9.986000
194 1 7.302216 5.000000 14.246500
195 1 7.302216 5.000000 18.507500
196 1 7.302216 5.000000 22.768500
197 1 6.078498 5.000000 7.855500
198 1 6.078498 5.000000 12.116500
199 1 6.078498 5.000000 16.377000
200 1 6.078498 5.000000 20.638000
201 1 4.854781 5.000000 8.565500
202 1 4.854781 5.000000 12.826500
203 1 4.854781 5.000000 17.087500
204 1 4.854781 5.000000 21.348000
205 1 3.631235 5.000000 10.696000
206 1 3.631235 5.000000 14.957000
207 1 3.631235 5.000000 19.217500
208 1 3.631235 5.000000 23.478500
209 1 4.854781 5.000000 9.986000
210 1 4.854781 5.000000 14.246500
211 1 4.854781 5.000000 18.507500
212 1 4.854781 5.000000 22.768500
213 1 3.631235 5.000000 7.855500
214 1 3.631235 5.000000 12.116500
215 1 3.631235 5.000000 16.377000
216 1 3.631235 5.000000 20.638000
217 1 2.407518 5.000000 8.565500
218 1 2.407518 5.000000 12.826500
219 1 2.407518 5.000000 17.087500
220 1 2.407518 5.000000 21.348000
221 1 1.183800 5.000000 10.696000
222 1 1.183800 5.000000 14.957000
223 1 1.183800 5.000000 19.217500
224 1 1.183800 5.000000 23.478500
225 1 2.407518 5.000000 9.986000
226 1 2.407518 5.000000 14.246500
227 1 2.407518 5.000000 18.507500
228 1 2.407518 5.000000 22.768500
229 1 1.183800 5.000000 7.855500
230 1 1.183800 5.000000 12.116500
231 1 1.183800 5.000000 16.377000
232 1 1.183800 5.000000 20.638000
233 2 15.865667 5.000000 6.715500
234 2 13.423030 5.000000 6.715500
235 2 10.975766 5.000000 6.715500
236 2 8.528332 5.000000 6.715500
237 2 6.080897 5.000000 6.715500
238 2 3.633634 5.000000 6.715500
239 2 1.181402 5.000000 6.715500
240 2 7.728514 2.252128 23.594705
241 2 9.694865 0.805265 25.698250
242 2 10.423579 9.370233 24.341767
243 2 14.100292 8.685976 26.510379
244 2 3.728877 1.771851 24.332944
245 2 1.889154 1.265753 25.429333
246 2 10.979265 9.758439 23.739001
247 2 2.548808 5.419183 26.319013
248 2 13.173801 7.111803 23.947172
249 2 0.139423 8.214298 27.591759
250 2 4.713003 9.088951 28.302441
251 2 9.384136 7.245500 30.669566
252 2 3.712341 1.594496 28.121958
253 2 4.122510 5.747292 28.226510
254 2 6.272238 8.104562 28.524106
255 2 14.307212 6.322687 27.198337
256 2 14.358208 7.361599 29.281850
257 2 8.415612 8.399783 28.924798
258 2 4.341513 5.671326 31.784082
259 2 7.232505 0.324776 33.471055
260 2 16.970123 1.852304 32.083968
261 2 3.788689 6.257700 33.471055
262 2 7.018498 4.656360 31.864332
263 2 8.009417 1.417168 33.471055
264 2 3.421528 4.792626 29.319802
265 2 7.418074 6.952379 28.636713
266 2 9.463044 5.577845 32.179130
267 2 8.973867 7.088600 30.427855
268 1 6.057532 4.843598 23.500000
269 1 0.371660 9.755031 26.111480
270 1 15.083810 0.677440 26.655415
271 1 14.528963 1.076258 26.725828
272 1 9.705679 1.266385 25.245741
273 1 9.098699 4.302982 23.555572
274 1 15.234903 3.229912 25.841124
275 1 15.632035 3.068511 24.736005
276 1 9.535568 9.370883 25.007714
277 1 15.222838 8.533101 24.826726
278 1 0.783791 8.972976 26.719183
279 1 0.441364 7.932956 28.075850
280 1 15.922119 1.644327 31.643505
281 1 3.413051 2.916425 23.500000
282 1 0.062480 6.443565 28.554756
283 1 5.224237 9.690295 24.357122
284 1 13.389851 1.129680 30.172166
285 1 12.555967 6.986282 30.253395
286 1 0.747130 2.330420 27.098564
287 1 2.809362 3.965885 27.458869
288 1 6.878517 4.737505 26.984790
289 1 0.199838 7.879673 27.574879
290 1 0.130160 2.678629 33.088168
291 1 7.568886 5.772381 31.835807
292 1 8.470707 9.397386 31.448211
293 1 16.234011 5.541174 30.793623
294 1 14.593780 0.328261 28.532455
295 1 15.342924 9.998293 33.471055
296 1 8.069921 2.766104 29.307511
297 1 1.624155 5.118025 29.604939
298 1 5.762197 7.195808 33.471055
299 1 9.657149 0.856047 33.471055
300 1 7.571782 9.487744 33.471055
