300
Atoms. Timestep: 0
9905056              3.842922                     5               34.3065
9905056              3.842922                     5               36.7665
9905056              3.842922                     5               39.2265
9905056              3.842922                     5               41.6865
9905056              3.842922                     5               44.1465
9905056              3.842922                     5               46.6065
9905056              3.842922                     5               49.0665
9905056              5.984385                     5               33.0765
9905056              5.984385                     5               35.5365
9905056              5.984385                     5               37.9965
9905056              5.984385                     5               40.4565
9905056              5.984385                     5               42.9165
9905056              5.984385                     5               45.3765
9905056              5.984385                     5               47.8365
9905056              5.270678                     5               34.3065
9905056              5.270678                     5               36.7665
9905056              5.270678                     5               39.2265
9905056              5.270678                     5               41.6865
9905056              5.270678                     5               44.1465
9905056              5.270678                     5               46.6065
9905056              5.270678                     5               49.0665
9905056              7.412141                     5               33.0765
9905056              7.412141                     5               35.5365
9905056              7.412141                     5               37.9965
9905056              7.412141                     5               40.4565
9905056              7.412141                     5               42.9165
9905056              7.412141                     5               45.3765
9905056              7.412141                     5               47.8365
9905056              8.125847                     5               34.3065
9905056              8.125847                     5               36.7665
9905024              8.125847                     5               39.2265
9905024              8.125847                     5               41.6865
9905024              8.125847                     5               44.1465
9905024              8.125847                     5               46.6065
9905024              8.125847                     5               49.0665
9905024              10.26731                     5               33.0765
9905024              10.26731                     5               35.5365
9905024              10.26731                     5               37.9965
9905024              10.26731                     5               40.4565
9905024              10.26731                     5               42.9165
9905024              10.26731                     5               45.3765
9905024              10.26731                     5               47.8365
9905024              9.553603                     5               34.3065
9905024              9.553603                     5               36.7665
9905024              9.553603                     5               39.2265
9905024              9.553603                     5               41.6865
9905024              9.553603                     5               44.1465
9905024              9.553603                     5               46.6065
9905024              9.553603                     5               49.0665
9905024             11.695066                     5               33.0765
9905024             11.695066                     5               35.5365
9905024             11.695066                     5               37.9965
9905024             11.695066                     5               40.4565
9905024             11.695066                     5               42.9165
9905024             11.695066                     5               45.3765
9905024             11.695066                     5               47.8365
9905024             12.408772                     5               34.3065
9905024             12.408772                     5               36.7665
9905024             12.408772                     5               39.2265
9905024             12.408772                     5               41.6865
9905024             12.408772                     5               44.1465
9905024             12.408772                     5               46.6065
9905024             12.408772                     5               49.0665
9905024             14.550235                     5               33.0765
9905024             14.550235                     5               35.5365
9905024             14.550235                     5               37.9965
9905024             14.550235                     5               40.4565
9905024             14.550235                     5               42.9165
9905024             14.550235                     5               45.3765
9905024             14.550235                     5               47.8365
9905024             13.836528                     5               34.3065
9905024             13.836528                     5               36.7665
9905024             13.836528                     5               39.2265
9905024             13.836528                     5               41.6865
9905024             13.836528                     5               44.1465
9905024             13.836528                     5               46.6065
9905024             13.836528                     5               49.0665
9905024             15.977991                     5               33.0765
9905024             15.977991                     5               35.5365
9905024             15.977991                     5               37.9965
9905024             15.977991                     5               40.4565
9905024             15.977991                     5               42.9165
9905024             15.977991                     5               45.3765
9905024             15.977991                     5               47.8365
9905024             16.691697                     5               34.3065
9905024             16.691697                     5               36.7665
9905024             16.691697                     5               39.2265
9905024             16.691697                     5               41.6865
9905024             16.691697                     5               44.1465
9905024             16.691697                     5               46.6065
9905024             16.691697                     5               49.0665
9905024               1.70146                     5               33.0765
9905024               1.70146                     5               35.5365
9905024               1.70146                     5               37.9965
9905024               1.70146                     5               40.4565
9905024               1.70146                     5               42.9165
9905024               1.70146                     5               45.3765
9905024               1.70146                     5               47.8365
9905024              0.987753                     5               34.3065
9905024              0.987753                     5               36.7665
9905024              0.987753                     5               39.2265
9905024              0.987753                     5               41.6865
9905024              0.987753                     5               44.1465
9905024              0.987753                     5               46.6065
9905024              0.987753                     5               49.0665
9905024              3.129216                     5               33.0765
9905024              3.129216                     5               35.5365
9905024              3.129216                     5               37.9965
9905024              3.129216                     5               40.4565
9905024              3.129216                     5               42.9165
9905024              3.129216                     5               45.3765
9905024              3.129216                     5               47.8365
9905056              3.272779                     5     0.054000000000002
9905056               5.84065                     5     0.054000000000002
9905056              7.557931                     5    0.0549999999999997
9905056             10.123575                     5     0.054000000000002
9905056             11.840856                     5    0.0549999999999997
9905056               14.4065                     5     0.054000000000002
9905056             16.123781                     5    0.0549999999999997
9905056              1.557725                     5     0.054000000000002
9905024             17.091783                     5                8.5655
9905024             17.091783                     5               12.8265
9905024             17.091783                     5               17.0875
9905024             17.091783                     5                21.348
9905024             17.091783                     5                 9.986
9905024             17.091783                     5               14.2465
9905024             17.091783                     5               18.5075
9905024             17.091783                     5               22.7685
9905024             15.868066                     5                10.696
9905024             15.868066                     5                14.957
9905024             15.868066                     5               19.2175
9905024             15.868066                     5               23.4785
9905024             15.868066                     5                7.8555
9905024             15.868066                     5               12.1165
9905024             15.868066                     5                16.377
9905024             15.868066                     5                20.638
9905024             14.644348                     5                8.5655
9905024             14.644348                     5               12.8265
9905024             14.644348                     5               17.0875
9905024             14.644348                     5                21.348
9905024             13.420631                     5                10.696
9905024             13.420631                     5                14.957
9905024             13.420631                     5               19.2175
9905024             13.420631                     5               23.4785
9905024             14.644348                     5                 9.986
9905024             14.644348                     5               14.2465
9905024             14.644348                     5               18.5075
9905024             14.644348                     5               22.7685
9905024             13.420631                     5                7.8555
9905024             13.420631                     5               12.1165
9905024             13.420631                     5                16.377
9905024             13.420631                     5                20.638
9905024             12.197085                     5                8.5655
9905024             12.197085                     5               12.8265
9905024             12.197085                     5               17.0875
9905024             12.197085                     5                21.348
9905024             10.973368                     5                10.696
9905024             10.973368                     5                14.957
9905024             10.973368                     5               19.2175
9905024             10.973368                     5               23.4785
9905024             12.197085                     5                 9.986
9905024             12.197085                     5               14.2465
9905024             12.197085                     5               18.5075
9905024             12.197085                     5               22.7685
9905024             10.973368                     5                7.8555
9905024             10.973368                     5               12.1165
9905024             10.973368                     5                16.377
9905024             10.973368                     5                20.638
9905024               9.74965                     5                8.5655
9905024               9.74965                     5               12.8265
9905024               9.74965                     5               17.0875
9905024               9.74965                     5                21.348
9905024              8.525933                     5                10.696
9905024              8.525933                     5                14.957
9905024              8.525933                     5               19.2175
9905024              8.525933                     5               23.4785
9905024               9.74965                     5                 9.986
9905024               9.74965                     5               14.2465
9905024               9.74965                     5               18.5075
9905024               9.74965                     5               22.7685
9905024              8.525933                     5                7.8555
9905024              8.525933                     5               12.1165
9905024              8.525933                     5                16.377
9905024              8.525933                     5                20.638
9905024              7.302216                     5                8.5655
9905024              7.302216                     5               12.8265
9905024              7.302216                     5               17.0875
9905024              7.302216                     5                21.348
9905024              6.078498                     5                10.696
9905024              6.078498                     5                14.957
9905024              6.078498                     5               19.2175
9905024              6.078498                     5               23.4785
9905024              7.302216                     5                 9.986
9905024              7.302216                     5               14.2465
9905024              7.302216                     5               18.5075
9905024              7.302216                     5               22.7685
9905024              6.078498                     5                7.8555
9905024              6.078498                     5               12.1165
9905024              6.078498                     5                16.377
9905024              6.078498                     5                20.638
9905024              4.854781                     5                8.5655
9905024              4.854781                     5               12.8265
9905024              4.854781                     5               17.0875
9905024              4.854781                     5                21.348
9905024              3.631235                     5                10.696
9905024              3.631235                     5                14.957
9905024              3.631235                     5               19.2175
9905024              3.631235                     5               23.4785
9905024              4.854781                     5                 9.986
9905024              4.854781                     5               14.2465
9905024              4.854781                     5               18.5075
9905024              4.854781                     5               22.7685
9905024              3.631235                     5                7.8555
9905024              3.631235                     5               12.1165
9905024              3.631235                     5                16.377
9905024              3.631235                     5                20.638
9905024              2.407518                     5                8.5655
9905024              2.407518                     5               12.8265
9905024              2.407518                     5               17.0875
9905024              2.407518                     5                21.348
9905024                1.1838                     5                10.696
9905024                1.1838                     5                14.957
9905024                1.1838                     5               19.2175
9905024                1.1838                     5               23.4785
9905024              2.407518                     5                 9.986
9905024              2.407518                     5               14.2465
9905024              2.407518                     5               18.5075
9905024              2.407518                     5               22.7685
9905024                1.1838                     5                7.8555
9905024                1.1838                     5               12.1165
9905024                1.1838                     5                16.377
9905024                1.1838                     5                20.638
9905056             15.865667                     5                6.7155
9905056              13.42303                     5                6.7155
9905056             10.975766                     5                6.7155
9905056              8.528332                     5                6.7155
9905056              6.080897                     5                6.7155
9905056              3.633634                     5                6.7155
9905056              1.181402                     5                6.7155
9905056              2.436583              1.625017             26.543442
9905056              5.008206                0.3797             25.967852
9905056              2.611334              9.722803             25.054773
9905056              15.51262              8.966004             27.582332
9905056              8.587309              1.037525             23.581561
9905056             12.342462              3.619872             23.692858
9905056              9.341082              5.210117                  23.5
9905056              6.010501              6.063145             26.433856
9905056             10.853445              5.346007             23.792458
9905056             12.348299              0.945282             27.734713
9905056              3.524194              1.461244             25.926471
9905056             11.611736              2.349544             25.899169
9905056              8.895527              9.853134              29.71462
9905056               3.29634              1.010405             26.191942
9905056              4.188449              3.228621             27.364592
9905056             12.817438              4.831032                  23.5
9905056              1.383205              6.543606             26.729668
9905056             11.206643              8.734549             27.796621
9905056              0.953958              3.489909             29.461529
9905056              3.029924              2.665705             32.494509
9905056              8.803441              3.844196             28.229417
9905056              13.62828               0.24265             28.228257
9905056              3.557144              9.252145             31.849247
9905056              7.648462              4.985718             32.742141
9905056              5.534524               5.46345             32.341143
9905056              6.186682              6.174761             31.912682
9905056              7.882049              8.047584              31.44213
9905056             14.299772              0.996886              26.84473
9905024              1.702593                0.7803             26.067147
9905024              5.055266              2.640236             23.995668
9905024             14.432747              2.885634             24.962585
9905024             11.789698              5.520399             25.529297
9905024                9.4577              8.449265             25.131177
9905024              12.83763              2.816999                  23.5
9905024             10.311408              8.651318             25.334314
9905024              3.255712              8.730042             24.513755
9905024             12.560765              0.702544             23.676055
9905024             13.345743              0.460493             23.661417
9905024              12.05683              1.459501              25.02745
9905024              3.196038              0.700174             28.833203
9905024              2.388542              4.213968             27.860089
9905024             11.349636              2.565338             30.036695
9905024              6.732372              5.517756              29.36996
9905024              4.486572              6.575495              26.47489
9905024             10.147237              7.648497             29.601217
9905024              8.139673              1.553827             27.921812
9905024             13.950314              7.666354             27.447362
9905024             16.417017              8.441044             23.535922
9905024             10.110812                7.4949             26.366318
9905024              5.457633              9.450237              28.22568
9905024              1.594174               1.38207             31.303216
9905024              5.017703              6.863873             29.987276
9905024              1.472087              0.557908                    33
9905024              2.064396              7.177043             32.027417
9905024              5.226006              9.578517                    33
9905024             12.272509              3.296722             31.177249
9905024              6.961129               9.58192              29.84764
9905024              9.343328              8.594543             32.343318
9905024             15.388984              9.250688                    33
9905024              6.225069              0.880966                    33
9905024              4.523199              0.652708             30.576985
300
Atoms. Timestep: 9
9905056      3.84235702179338                     5      34.3115479896734
9905056      3.84235702179338                     5      36.7715479896734
9905056      3.84235702179338                     5      39.2315479896734
9905056      3.84235702179338                     5      41.6915479896734
9905056      3.84235702179338                     5      44.1515479896734
9905056      3.84235702179338                     5      46.6115479896734
9905056      3.84235702179338                     5      49.0715479896734
9905056      5.98382002179338                     5      33.0815479896734
9905056      5.98382002179338                     5      35.5415479896734
9905056      5.98382002179338                     5      38.0015479896734
9905056      5.98382002179338                     5      40.4615479896734
9905056      5.98382002179338                     5      42.9215479896734
9905056      5.98382002179338                     5      45.3815479896734
9905056      5.98382002179338                     5      47.8415479896734
9905056      5.27011302179338                     5      34.3115479896734
9905056      5.27011302179338                     5      36.7715479896734
9905056      5.27011302179338                     5      39.2315479896734
9905056      5.27011302179338                     5      41.6915479896734
9905056      5.27011302179338                     5      44.1515479896734
9905056      5.27011302179338                     5      46.6115479896734
9905056      5.27011302179338                     5      49.0715479896734
9905056      7.41157602179338                     5      33.0815479896734
9905056      7.41157602179338                     5      35.5415479896734
9905056      7.41157602179338                     5      38.0015479896734
9905056      7.41157602179338                     5      40.4615479896734
9905056      7.41157602179338                     5      42.9215479896734
9905056      7.41157602179338                     5      45.3815479896734
9905056      7.41157602179338                     5      47.8415479896734
9905056      8.12528202179338                     5      34.3115479896734
9905056      8.12528202179338                     5      36.7715479896734
9905024      8.12528202179338                     5      39.2315479896734
9905024      8.12528202179338                     5      41.6915479896734
9905024      8.12528202179338                     5      44.1515479896734
9905024      8.12528202179338                     5      46.6115479896734
9905024      8.12528202179338                     5      49.0715479896734
9905024      10.2667450217934                     5      33.0815479896734
9905024      10.2667450217934                     5      35.5415479896734
9905024      10.2667450217934                     5      38.0015479896734
9905024      10.2667450217934                     5      40.4615479896734
9905024      10.2667450217934                     5      42.9215479896734
9905024      10.2667450217934                     5      45.3815479896734
9905024      10.2667450217934                     5      47.8415479896734
9905024      9.55303802179338                     5      34.3115479896734
9905024      9.55303802179338                     5      36.7715479896734
9905024      9.55303802179338                     5      39.2315479896734
9905024      9.55303802179338                     5      41.6915479896734
9905024      9.55303802179338                     5      44.1515479896734
9905024      9.55303802179338                     5      46.6115479896734
9905024      9.55303802179338                     5      49.0715479896734
9905024      11.6945010217934                     5      33.0815479896734
9905024      11.6945010217934                     5      35.5415479896734
9905024      11.6945010217934                     5      38.0015479896734
9905024      11.6945010217934                     5      40.4615479896734
9905024      11.6945010217934                     5      42.9215479896734
9905024      11.6945010217934                     5      45.3815479896734
9905024      11.6945010217934                     5      47.8415479896734
9905024      12.4082070217934                     5      34.3115479896734
9905024      12.4082070217934                     5      36.7715479896734
9905024      12.4082070217934                     5      39.2315479896734
9905024      12.4082070217934                     5      41.6915479896734
9905024      12.4082070217934                     5      44.1515479896734
9905024      12.4082070217934                     5      46.6115479896734
9905024      12.4082070217934                     5      49.0715479896734
9905024      14.5496700217934                     5      33.0815479896734
9905024      14.5496700217934                     5      35.5415479896734
9905024      14.5496700217934                     5      38.0015479896734
9905024      14.5496700217934                     5      40.4615479896734
9905024      14.5496700217934                     5      42.9215479896734
9905024      14.5496700217934                     5      45.3815479896734
9905024      14.5496700217934                     5      47.8415479896734
9905024      13.8359630217934                     5      34.3115479896734
9905024      13.8359630217934                     5      36.7715479896734
9905024      13.8359630217934                     5      39.2315479896734
9905024      13.8359630217934                     5      41.6915479896734
9905024      13.8359630217934                     5      44.1515479896734
9905024      13.8359630217934                     5      46.6115479896734
9905024      13.8359630217934                     5      49.0715479896734
9905024      15.9774260217934                     5      33.0815479896734
9905024      15.9774260217934                     5      35.5415479896734
9905024      15.9774260217934                     5      38.0015479896734
9905024      15.9774260217934                     5      40.4615479896734
9905024      15.9774260217934                     5      42.9215479896734
9905024      15.9774260217934                     5      45.3815479896734
9905024      15.9774260217934                     5      47.8415479896734
9905024      16.6911320217934                     5      34.3115479896734
9905024      16.6911320217934                     5      36.7715479896734
9905024      16.6911320217934                     5      39.2315479896734
9905024      16.6911320217934                     5      41.6915479896734
9905024      16.6911320217934                     5      44.1515479896734
9905024      16.6911320217934                     5      46.6115479896734
9905024      16.6911320217934                     5      49.0715479896734
9905024      1.70089502179338                     5      33.0815479896734
9905024      1.70089502179338                     5      35.5415479896734
9905024      1.70089502179338                     5      38.0015479896734
9905024      1.70089502179338                     5      40.4615479896734
9905024      1.70089502179338                     5      42.9215479896734
9905024      1.70089502179338                     5      45.3815479896734
9905024      1.70089502179338                     5      47.8415479896734
9905024     0.987188021793383                     5      34.3115479896734
9905024     0.987188021793383                     5      36.7715479896734
9905024     0.987188021793383                     5      39.2315479896734
9905024     0.987188021793383                     5      41.6915479896734
9905024     0.987188021793383                     5      44.1515479896734
9905024     0.987188021793383                     5      46.6115479896734