search structure

300 atoms
2  atom types

0   17.131700 xlo xhi
0   10.000000 ylo yhi
0   50.000000 zlo zhi

Atoms

1 2 3.842922 5.000000 34.306500
2 2 3.842922 5.000000 36.766500
3 2 3.842922 5.000000 39.226500
4 2 3.842922 5.000000 41.686500
5 2 3.842922 5.000000 44.146500
6 2 3.842922 5.000000 46.606500
7 2 3.842922 5.000000 49.066500
8 2 5.984385 5.000000 33.076500
9 2 5.984385 5.000000 35.536500
10 2 5.984385 5.000000 37.996500
11 2 5.984385 5.000000 40.456500
12 2 5.984385 5.000000 42.916500
13 2 5.984385 5.000000 45.376500
14 2 5.984385 5.000000 47.836500
15 2 5.270678 5.000000 34.306500
16 2 5.270678 5.000000 36.766500
17 2 5.270678 5.000000 39.226500
18 2 5.270678 5.000000 41.686500
19 2 5.270678 5.000000 44.146500
20 2 5.270678 5.000000 46.606500
21 2 5.270678 5.000000 49.066500
22 2 7.412141 5.000000 33.076500
23 2 7.412141 5.000000 35.536500
24 2 7.412141 5.000000 37.996500
25 2 7.412141 5.000000 40.456500
26 2 7.412141 5.000000 42.916500
27 2 7.412141 5.000000 45.376500
28 2 7.412141 5.000000 47.836500
29 2 8.125847 5.000000 34.306500
30 2 8.125847 5.000000 36.766500
31 1 8.125847 5.000000 39.226500
32 1 8.125847 5.000000 41.686500
33 1 8.125847 5.000000 44.146500
34 1 8.125847 5.000000 46.606500
35 1 8.125847 5.000000 49.066500
36 1 10.267310 5.000000 33.076500
37 1 10.267310 5.000000 35.536500
38 1 10.267310 5.000000 37.996500
39 1 10.267310 5.000000 40.456500
40 1 10.267310 5.000000 42.916500
41 1 10.267310 5.000000 45.376500
42 1 10.267310 5.000000 47.836500
43 1 9.553603 5.000000 34.306500
44 1 9.553603 5.000000 36.766500
45 1 9.553603 5.000000 39.226500
46 1 9.553603 5.000000 41.686500
47 1 9.553603 5.000000 44.146500
48 1 9.553603 5.000000 46.606500
49 1 9.553603 5.000000 49.066500
50 1 11.695066 5.000000 33.076500
51 1 11.695066 5.000000 35.536500
52 1 11.695066 5.000000 37.996500
53 1 11.695066 5.000000 40.456500
54 1 11.695066 5.000000 42.916500
55 1 11.695066 5.000000 45.376500
56 1 11.695066 5.000000 47.836500
57 1 12.408772 5.000000 34.306500
58 1 12.408772 5.000000 36.766500
59 1 12.408772 5.000000 39.226500
60 1 12.408772 5.000000 41.686500
61 1 12.408772 5.000000 44.146500
62 1 12.408772 5.000000 46.606500
63 1 12.408772 5.000000 49.066500
64 1 14.550235 5.000000 33.076500
65 1 14.550235 5.000000 35.536500
66 1 14.550235 5.000000 37.996500
67 1 14.550235 5.000000 40.456500
68 1 14.550235 5.000000 42.916500
69 1 14.550235 5.000000 45.376500
70 1 14.550235 5.000000 47.836500
71 1 13.836528 5.000000 34.306500
72 1 13.836528 5.000000 36.766500
73 1 13.836528 5.000000 39.226500
74 1 13.836528 5.000000 41.686500
75 1 13.836528 5.000000 44.146500
76 1 13.836528 5.000000 46.606500
77 1 13.836528 5.000000 49.066500
78 1 15.977991 5.000000 33.076500
79 1 15.977991 5.000000 35.536500
80 1 15.977991 5.000000 37.996500
81 1 15.977991 5.000000 40.456500
82 1 15.977991 5.000000 42.916500
83 1 15.977991 5.000000 45.376500
84 1 15.977991 5.000000 47.836500
85 1 16.691697 5.000000 34.306500
86 1 16.691697 5.000000 36.766500
87 1 16.691697 5.000000 39.226500
88 1 16.691697 5.000000 41.686500
89 1 16.691697 5.000000 44.146500
90 1 16.691697 5.000000 46.606500
91 1 16.691697 5.000000 49.066500
92 1 1.701460 5.000000 33.076500
93 1 1.701460 5.000000 35.536500
94 1 1.701460 5.000000 37.996500
95 1 1.701460 5.000000 40.456500
96 1 1.701460 5.000000 42.916500
97 1 1.701460 5.000000 45.376500
98 1 1.701460 5.000000 47.836500
99 1 0.987753 5.000000 34.306500
100 1 0.987753 5.000000 36.766500
101 1 0.987753 5.000000 39.226500
102 1 0.987753 5.000000 41.686500
103 1 0.987753 5.000000 44.146500
104 1 0.987753 5.000000 46.606500
105 1 0.987753 5.000000 49.066500
106 1 3.129216 5.000000 33.076500
107 1 3.129216 5.000000 35.536500
108 1 3.129216 5.000000 37.996500
109 1 3.129216 5.000000 40.456500
110 1 3.129216 5.000000 42.916500
111 1 3.129216 5.000000 45.376500
112 1 3.129216 5.000000 47.836500
113 2 3.272779 5.000000 50.054000
114 2 5.840650 5.000000 50.054000
115 2 7.557931 5.000000 50.055000
116 2 10.123575 5.000000 50.054000
117 2 11.840856 5.000000 50.055000
118 2 14.406500 5.000000 50.054000
119 2 16.123781 5.000000 50.055000
120 2 1.557725 5.000000 50.054000
121 1 -0.039917 5.000000 8.565500
122 1 -0.039917 5.000000 12.826500
123 1 -0.039917 5.000000 17.087500
124 1 -0.039917 5.000000 21.348000
125 1 -0.039917 5.000000 9.986000
126 1 -0.039917 5.000000 14.246500
127 1 -0.039917 5.000000 18.507500
128 1 -0.039917 5.000000 22.768500
129 1 15.868066 5.000000 10.696000
130 1 15.868066 5.000000 14.957000
131 1 15.868066 5.000000 19.217500
132 1 15.868066 5.000000 23.478500
133 1 15.868066 5.000000 7.855500
134 1 15.868066 5.000000 12.116500
135 1 15.868066 5.000000 16.377000
136 1 15.868066 5.000000 20.638000
137 1 14.644348 5.000000 8.565500
138 1 14.644348 5.000000 12.826500
139 1 14.644348 5.000000 17.087500
140 1 14.644348 5.000000 21.348000
141 1 13.420631 5.000000 10.696000
142 1 13.420631 5.000000 14.957000
143 1 13.420631 5.000000 19.217500
144 1 13.420631 5.000000 23.478500
145 1 14.644348 5.000000 9.986000
146 1 14.644348 5.000000 14.246500
147 1 14.644348 5.000000 18.507500
148 1 14.644348 5.000000 22.768500
149 1 13.420631 5.000000 7.855500
150 1 13.420631 5.000000 12.116500
151 1 13.420631 5.000000 16.377000
152 1 13.420631 5.000000 20.638000
153 1 12.197085 5.000000 8.565500
154 1 12.197085 5.000000 12.826500
155 1 12.197085 5.000000 17.087500
156 1 12.197085 5.000000 21.348000
157 1 10.973368 5.000000 10.696000
158 1 10.973368 5.000000 14.957000
159 1 10.973368 5.000000 19.217500
160 1 10.973368 5.000000 23.478500
161 1 12.197085 5.000000 9.986000
162 1 12.197085 5.000000 14.246500
163 1 12.197085 5.000000 18.507500
164 1 12.197085 5.000000 22.768500
165 1 10.973368 5.000000 7.855500
166 1 10.973368 5.000000 12.116500
167 1 10.973368 5.000000 16.377000
168 1 10.973368 5.000000 20.638000
169 1 9.749650 5.000000 8.565500
170 1 9.749650 5.000000 12.826500
171 1 9.749650 5.000000 17.087500
172 1 9.749650 5.000000 21.348000
173 1 8.525933 5.000000 10.696000
174 1 8.525933 5.000000 14.957000
175 1 8.525933 5.000000 19.217500
176 1 8.525933 5.000000 23.478500
177 1 9.749650 5.000000 9.986000
178 1 9.749650 5.000000 14.246500
179 1 9.749650 5.000000 18.507500
180 1 9.749650 5.000000 22.768500
181 1 8.525933 5.000000 7.855500
182 1 8.525933 5.000000 12.116500
183 1 8.525933 5.000000 16.377000
184 1 8.525933 5.000000 20.638000
185 1 7.302216 5.000000 8.565500
186 1 7.302216 5.000000 12.826500
187 1 7.302216 5.000000 17.087500
188 1 7.302216 5.000000 21.348000
189 1 6.078498 5.000000 10.696000
190 1 6.078498 5.000000 14.957000
191 1 6.078498 5.000000 19.217500
192 1 6.078498 5.000000 23.478500
193 1 7.302216 5.000000 9.986000
194 1 7.302216 5.000000 14.246500
195 1 7.302216 5.000000 18.507500
196 1 7.302216 5.000000 22.768500
197 1 6.078498 5.000000 7.855500
198 1 6.078498 5.000000 12.116500
199 1 6.078498 5.000000 16.377000
200 1 6.078498 5.000000 20.638000
201 1 4.854781 5.000000 8.565500
202 1 4.854781 5.000000 12.826500
203 1 4.854781 5.000000 17.087500
204 1 4.854781 5.000000 21.348000
205 1 3.631235 5.000000 10.696000
206 1 3.631235 5.000000 14.957000
207 1 3.631235 5.000000 19.217500
208 1 3.631235 5.000000 23.478500
209 1 4.854781 5.000000 9.986000
210 1 4.854781 5.000000 14.246500
211 1 4.854781 5.000000 18.507500
212 1 4.854781 5.000000 22.768500
213 1 3.631235 5.000000 7.855500
214 1 3.631235 5.000000 12.116500
215 1 3.631235 5.000000 16.377000
216 1 3.631235 5.000000 20.638000
217 1 2.407518 5.000000 8.565500
218 1 2.407518 5.000000 12.826500
219 1 2.407518 5.000000 17.087500
220 1 2.407518 5.000000 21.348000
221 1 1.183800 5.000000 10.696000
222 1 1.183800 5.000000 14.957000
223 1 1.183800 5.000000 19.217500
224 1 1.183800 5.000000 23.478500
225 1 2.407518 5.000000 9.986000
226 1 2.407518 5.000000 14.246500
227 1 2.407518 5.000000 18.507500
228 1 2.407518 5.000000 22.768500
229 1 1.183800 5.000000 7.855500
230 1 1.183800 5.000000 12.116500
231 1 1.183800 5.000000 16.377000
232 1 1.183800 5.000000 20.638000
233 2 15.865667 5.000000 6.715500
234 2 13.423030 5.000000 6.715500
235 2 10.975766 5.000000 6.715500
236 2 8.528332 5.000000 6.715500
237 2 6.080897 5.000000 6.715500
238 2 3.633634 5.000000 6.715500
239 2 1.181402 5.000000 6.715500
240 2 2.436583 1.625017 26.543442
241 2 5.008206 0.379700 25.967852
242 2 2.611334 9.722803 25.054773
243 2 15.512620 8.966004 27.582332
244 2 8.587309 1.037525 23.581561
245 2 12.342462 3.619872 23.692858
246 2 9.341082 5.210117 23.500000
247 2 6.010501 6.063145 26.433856
248 2 10.853445 5.346007 23.792458
249 2 12.348299 0.945282 27.734713
250 2 3.524194 1.461244 25.926471
251 2 11.611736 2.349544 25.899169
252 2 8.895527 9.853134 29.714620
253 2 3.296340 1.010405 26.191942
254 2 4.188449 3.228621 27.364592
255 2 12.817438 4.831032 23.500000
256 2 1.383205 6.543606 26.729668
257 2 11.206643 8.734549 27.796621
258 2 0.953958 3.489909 29.461529
259 2 3.029924 2.665705 32.494509
260 2 8.803441 3.844196 28.229417
261 2 13.628280 0.242650 28.228257
262 2 3.557144 9.252145 31.849247
263 2 7.648462 4.985718 32.742141
264 2 5.534524 5.463450 32.341143
265 2 6.186682 6.174761 31.912682
266 2 7.882049 8.047584 31.442130
267 2 14.299772 0.996886 26.844730
268 1 1.702593 0.780300 26.067147
269 1 5.055266 2.640236 23.995668
270 1 14.432747 2.885634 24.962585
271 1 11.789698 5.520399 25.529297
272 1 9.457700 8.449265 25.131177
273 1 12.837630 2.816999 23.500000
274 1 10.311408 8.651318 25.334314
275 1 3.255712 8.730042 24.513755
276 1 12.560765 0.702544 23.676055
277 1 13.345743 0.460493 23.661417
278 1 12.056830 1.459501 25.027450
279 1 3.196038 0.700174 28.833203
280 1 2.388542 4.213968 27.860089
281 1 11.349636 2.565338 30.036695
282 1 6.732372 5.517756 29.369960
283 1 4.486572 6.575495 26.474890
284 1 10.147237 7.648497 29.601217
285 1 8.139673 1.553827 27.921812
286 1 13.950314 7.666354 27.447362
287 1 16.417017 8.441044 23.535922
288 1 10.110812 7.494900 26.366318
289 1 5.457633 9.450237 28.225680
290 1 1.594174 1.382070 31.303216
291 1 5.017703 6.863873 29.987276
292 1 1.472087 0.557908 33.000000
293 1 2.064396 7.177043 32.027417
294 1 5.226006 9.578517 33.000000
295 1 12.272509 3.296722 31.177249
296 1 6.961129 9.581920 29.847640
297 1 9.343328 8.594543 32.343318
298 1 15.388984 9.250688 33.000000
299 1 6.225069 0.880966 33.000000
300 1 4.523199 0.652708 30.576985
