300
Atoms. Timestep: 0
461599648              1.871132                     5             36.070155
461599648              1.871132                     5             38.530155
461599648              1.871132                     5             40.990155
461599648              1.871132                     5             43.450155
461599648              1.871132                     5             45.910155
461599648              1.871132                     5             48.370155
461599648              1.871132                     5     0.830154999999998
461599648              4.012595                     5             34.840155
461599648              4.012595                     5             37.300155
461599648              4.012595                     5             39.760155
461599648              4.012595                     5             42.220155
461599648              4.012595                     5             44.680155
461599648              4.012595                     5             47.140155
461599648              4.012595                     5             49.600155
461599648              3.298888                     5             36.070155
461599648              3.298888                     5             38.530155
461599648              3.298888                     5             40.990155
461599648              3.298888                     5             43.450155
461599648              3.298888                     5             45.910155
461599648              3.298888                     5             48.370155
461599648              3.298888                     5     0.830154999999998
461599648              5.440351                     5             34.840155
461599648              5.440351                     5             37.300155
461599648              5.440351                     5             39.760155
461599648              5.440351                     5             42.220155
461599648              5.440351                     5             44.680155
461599648              5.440351                     5             47.140155
461599648              5.440351                     5             49.600155
461599648              6.154057                     5             36.070155
461599648              6.154057                     5             38.530155
461599616              6.154057                     5             40.990155
461599616              6.154057                     5             43.450155
461599616              6.154057                     5             45.910155
461599616              6.154057                     5             48.370155
461599616              6.154057                     5     0.830154999999998
461599616               8.29552                     5             34.840155
461599616               8.29552                     5             37.300155
461599616               8.29552                     5             39.760155
461599616               8.29552                     5             42.220155
461599616               8.29552                     5             44.680155
461599616               8.29552                     5             47.140155
461599616               8.29552                     5             49.600155
461599616              7.581813                     5             36.070155
461599616              7.581813                     5             38.530155
461599616              7.581813                     5             40.990155
461599616              7.581813                     5             43.450155
461599616              7.581813                     5             45.910155
461599616              7.581813                     5             48.370155
461599616              7.581813                     5     0.830154999999998
461599616              9.723276                     5             34.840155
461599616              9.723276                     5             37.300155
461599616              9.723276                     5             39.760155
461599616              9.723276                     5             42.220155
461599616              9.723276                     5             44.680155
461599616              9.723276                     5             47.140155
461599616              9.723276                     5             49.600155
461599616             10.436982                     5             36.070155
461599616             10.436982                     5             38.530155
461599616             10.436982                     5             40.990155
461599616             10.436982                     5             43.450155
461599616             10.436982                     5             45.910155
461599616             10.436982                     5             48.370155
461599616             10.436982                     5     0.830154999999998
461599616             12.578445                     5             34.840155
461599616             12.578445                     5             37.300155
461599616             12.578445                     5             39.760155
461599616             12.578445                     5             42.220155
461599616             12.578445                     5             44.680155
461599616             12.578445                     5             47.140155
461599616             12.578445                     5             49.600155
461599616             11.864738                     5             36.070155
461599616             11.864738                     5             38.530155
461599616             11.864738                     5             40.990155
461599616             11.864738                     5             43.450155
461599616             11.864738                     5             45.910155
461599616             11.864738                     5             48.370155
461599616             11.864738                     5     0.830154999999998
461599616             14.006201                     5             34.840155
461599616             14.006201                     5             37.300155
461599616             14.006201                     5             39.760155
461599616             14.006201                     5             42.220155
461599616             14.006201                     5             44.680155
461599616             14.006201                     5             47.140155
461599616             14.006201                     5             49.600155
461599616             14.719907                     5             36.070155
461599616             14.719907                     5             38.530155
461599616             14.719907                     5             40.990155
461599616             14.719907                     5             43.450155
461599616             14.719907                     5             45.910155
461599616             14.719907                     5             48.370155
461599616             14.719907                     5     0.830154999999998
461599616              16.86137                     5             34.840155
461599616              16.86137                     5             37.300155
461599616              16.86137                     5             39.760155
461599616              16.86137                     5             42.220155
461599616              16.86137                     5             44.680155
461599616              16.86137                     5             47.140155
461599616              16.86137                     5             49.600155
461599616             16.147663                     5             36.070155
461599616             16.147663                     5             38.530155
461599616             16.147663                     5             40.990155
461599616             16.147663                     5             43.450155
461599616             16.147663                     5             45.910155
461599616             16.147663                     5             48.370155
461599616             16.147663                     5     0.830154999999998
461599616              1.157426                     5             34.840155
461599616              1.157426                     5             37.300155
461599616              1.157426                     5             39.760155
461599616              1.157426                     5             42.220155
461599616              1.157426                     5             44.680155
461599616              1.157426                     5             47.140155
461599616              1.157426                     5             49.600155
461599648              1.300989                     5              1.817655
461599648               3.86886                     5              1.817655
461599648              5.586141                     5              1.818655
461599648              8.151785                     5              1.817655
461599648              9.869066                     5              1.818655
461599648              12.43471                     5              1.817655
461599648             14.151991                     5              1.818655
461599648             16.717635                     5              1.817655
461599616             17.091783                     5                8.5655
461599616             17.091783                     5               12.8265
461599616             17.091783                     5               17.0875
461599616             17.091783                     5                21.348
461599616             17.091783                     5                 9.986
461599616             17.091783                     5               14.2465
461599616             17.091783                     5               18.5075
461599616             17.091783                     5               22.7685
461599616             15.868066                     5                10.696
461599616             15.868066                     5                14.957
461599616             15.868066                     5               19.2175
461599616             15.868066                     5               23.4785
461599616             15.868066                     5                7.8555
461599616             15.868066                     5               12.1165
461599616             15.868066                     5                16.377
461599616             15.868066                     5                20.638
461599616             14.644348                     5                8.5655
461599616             14.644348                     5               12.8265
461599616             14.644348                     5               17.0875
461599616             14.644348                     5                21.348
461599616             13.420631                     5                10.696
461599616             13.420631                     5                14.957
461599616             13.420631                     5               19.2175
461599616             13.420631                     5               23.4785
461599616             14.644348                     5                 9.986
461599616             14.644348                     5               14.2465
461599616             14.644348                     5               18.5075
461599616             14.644348                     5               22.7685
461599616             13.420631                     5                7.8555
461599616             13.420631                     5               12.1165
461599616             13.420631                     5                16.377
461599616             13.420631                     5                20.638
461599616             12.197085                     5                8.5655
461599616             12.197085                     5               12.8265
461599616             12.197085                     5               17.0875
461599616             12.197085                     5                21.348
461599616             10.973368                     5                10.696
461599616             10.973368                     5                14.957
461599616             10.973368                     5               19.2175
461599616             10.973368                     5               23.4785
461599616             12.197085                     5                 9.986
461599616             12.197085                     5               14.2465
461599616             12.197085                     5               18.5075
461599616             12.197085                     5               22.7685
461599616             10.973368                     5                7.8555
461599616             10.973368                     5               12.1165
461599616             10.973368                     5                16.377
461599616             10.973368                     5                20.638
461599616               9.74965                     5                8.5655
461599616               9.74965                     5               12.8265
461599616               9.74965                     5               17.0875
461599616               9.74965                     5                21.348
461599616              8.525933                     5                10.696
461599616              8.525933                     5                14.957
461599616              8.525933                     5               19.2175
461599616              8.525933                     5               23.4785
461599616               9.74965                     5                 9.986
461599616               9.74965                     5               14.2465
461599616               9.74965                     5               18.5075
461599616               9.74965                     5               22.7685
461599616              8.525933                     5                7.8555
461599616              8.525933                     5               12.1165
461599616              8.525933                     5                16.377
461599616              8.525933                     5                20.638
461599616              7.302216                     5                8.5655
461599616              7.302216                     5               12.8265
461599616              7.302216                     5               17.0875
461599616              7.302216                     5                21.348
461599616              6.078498                     5                10.696
461599616              6.078498                     5                14.957
461599616              6.078498                     5               19.2175
461599616              6.078498                     5               23.4785
461599616              7.302216                     5                 9.986
461599616              7.302216                     5               14.2465
461599616              7.302216                     5               18.5075
461599616              7.302216                     5               22.7685
461599616              6.078498                     5                7.8555
461599616              6.078498                     5               12.1165
461599616              6.078498                     5                16.377
461599616              6.078498                     5                20.638
461599616              4.854781                     5                8.5655
461599616              4.854781                     5               12.8265
461599616              4.854781                     5               17.0875
461599616              4.854781                     5                21.348
461599616              3.631235                     5                10.696
461599616              3.631235                     5                14.957
461599616              3.631235                     5               19.2175
461599616              3.631235                     5               23.4785
461599616              4.854781                     5                 9.986
461599616              4.854781                     5               14.2465
461599616              4.854781                     5               18.5075
461599616              4.854781                     5               22.7685
461599616              3.631235                     5                7.8555
461599616              3.631235                     5               12.1165
461599616              3.631235                     5                16.377
461599616              3.631235                     5                20.638
461599616              2.407518                     5                8.5655
461599616              2.407518                     5               12.8265
461599616              2.407518                     5               17.0875
461599616              2.407518                     5                21.348
461599616                1.1838                     5                10.696
461599616                1.1838                     5                14.957
461599616                1.1838                     5               19.2175
461599616                1.1838                     5               23.4785
461599616              2.407518                     5                 9.986
461599616              2.407518                     5               14.2465
461599616              2.407518                     5               18.5075
461599616              2.407518                     5               22.7685
461599616                1.1838                     5                7.8555
461599616                1.1838                     5               12.1165
461599616                1.1838                     5                16.377
461599616                1.1838                     5                20.638
461599648             15.865667                     5                6.7155
461599648              13.42303                     5                6.7155
461599648             10.975766                     5                6.7155
461599648              8.528332                     5                6.7155
461599648              6.080897                     5                6.7155
461599648              3.633634                     5                6.7155
461599648              1.181402                     5                6.7155
461599648              4.435829              4.838734             29.884471
461599648              9.177524              5.107598             24.742488
461599648             11.064127              4.782588             25.206607
461599648             11.326777              4.254166             26.739654
461599648             12.983189              4.290976             24.872362
461599648              6.838683              2.561454                  23.5
461599648             15.466461              4.414387              23.72606
461599648             12.992651              3.611074             24.354934
461599648             13.818281              5.087728             24.809856
461599648             15.642015              3.844891             31.668154
461599648              2.951547                 5.717             29.637589
461599648             16.912082              8.686204             29.212876
461599648             11.806144              7.202604             31.717266
461599648              6.426193              8.432514             27.136453
461599648             11.039651              1.733394             29.477046
461599648              4.508094               6.95612             29.937375
461599648             12.172968              7.186566             30.010116
461599648             10.339606              7.888013             31.500522
461599648              5.135549               4.46074             34.763655
461599648              5.853363              0.842016             33.324776
461599648             17.110922              0.414005             34.763655
461599648              7.277564               2.15736             34.763655
461599648              7.620978              6.798428             30.707132
461599648              9.946155              3.375241             28.487298
461599648             16.385892              7.845394               31.3609
461599648              2.988248              7.563886             32.907442
461599648             15.669549              8.144884             30.055764
461599648             14.006811              4.979061             34.496888
461599616              3.969937              2.012451             24.071581
461599616              4.135795              2.073728                  23.5
461599616              1.791614              2.815707                  23.5
461599616              9.205203              3.557008             26.183634
461599616              1.491484              5.435384                  23.5
461599616             12.634882              7.997616                  23.5
461599616             10.501853              9.900346                  23.5
461599616              7.515613              0.964038                  23.5
461599616             11.379395              7.066396             24.846814
461599616             15.218251              7.039467             24.228423
461599616              7.826661              0.802201             25.246612
461599616             10.757084              5.674801             31.296796
461599616               4.01021              7.120267             26.308344
461599616              3.067764              8.904644             23.942774
461599616             14.966489              9.572595             27.223098
461599616             17.064068               7.82456             27.336997
461599616              3.413596              8.854562             24.870005
461599616              3.435463               9.58843             29.082455
461599616              0.076018              9.628022             29.633936
461599616             16.260411              6.338737             28.188877
461599616              1.709661              6.481605              24.84295
461599616              2.661583              8.312119             25.135201
461599616             13.685028              0.315331              32.34736
461599616              5.047242              8.716664             31.396058
461599616              2.349353              1.878585             33.965098
461599616             15.988465              9.275967             31.635494
461599616              0.619457               1.53438             33.502869
461599616              4.467013              7.465143             28.336467
461599616              15.40616              2.508094             33.730602
461599616             16.088812              8.016567             31.152929
461599616               5.76857              8.299378             28.438111
461599616              7.993171              0.499388             31.813388
461599616              2.603475              0.743548             34.255772
300
Atoms. Timestep: 10
461599648      1.87180715868214                     5      36.0744347066269
461599648      1.87180715868214                     5      38.5344347066269
461599648      1.87180715868214                     5      40.9944347066269
461599648      1.87180715868214                     5      43.4544347066269
461599648      1.87180715868214                     5      45.9144347066269
461599648      1.87180715868214                     5      48.3744347066269
461599648      1.87180715868214                     5     0.834434706626881
461599648      4.01327015868214                     5      34.8444347066269
461599648      4.01327015868214                     5      37.3044347066269
461599648      4.01327015868214                     5      39.7644347066269
461599648      4.01327015868214                     5      42.2244347066269
461599648      4.01327015868214                     5      44.6844347066269
461599648      4.01327015868214                     5      47.1444347066269
461599648      4.01327015868214                     5      49.6044347066269
461599648      3.29956315868214                     5      36.0744347066269
461599648      3.29956315868214                     5      38.5344347066269
461599648      3.29956315868214                     5      40.9944347066269
461599648      3.29956315868214                     5      43.4544347066269
461599648      3.29956315868214                     5      45.9144347066269
461599648      3.29956315868214                     5      48.3744347066269
461599648      3.29956315868214                     5     0.834434706626881
461599648      5.44102615868214                     5      34.8444347066269
461599648      5.44102615868214                     5      37.3044347066269
461599648      5.44102615868214                     5      39.7644347066269
461599648      5.44102615868214                     5      42.2244347066269
461599648      5.44102615868214                     5      44.6844347066269
461599648      5.44102615868214                     5      47.1444347066269
461599648      5.44102615868214                     5      49.6044347066269
461599648      6.15473215868214                     5      36.0744347066269
461599648      6.15473215868214                     5      38.5344347066269
461599616      6.15473215868214                     5      40.9944347066269
461599616      6.15473215868214                     5      43.4544347066269
461599616      6.15473215868214                     5      45.9144347066269
461599616      6.15473215868214                     5      48.3744347066269
461599616      6.15473215868214                     5     0.834434706626881
461599616      8.29619515868214                     5      34.8444347066269
461599616      8.29619515868214                     5      37.3044347066269
461599616      8.29619515868214                     5      39.7644347066269
461599616      8.29619515868214                     5      42.2244347066269
461599616      8.29619515868214                     5      44.6844347066269
461599616      8.29619515868214                     5      47.1444347066269
461599616      8.29619515868214                     5      49.6044347066269
461599616      7.58248815868214                     5      36.0744347066269
461599616      7.58248815868214                     5      38.5344347066269
461599616      7.58248815868214                     5      40.9944347066269
461599616      7.58248815868214                     5      43.4544347066269
461599616      7.58248815868214                     5      45.9144347066269
461599616      7.58248815868214                     5      48.3744347066269
461599616      7.58248815868214                     5     0.834434706626881
461599616      9.72395115868214                     5      34.8444347066269
461599616      9.72395115868214                     5      37.3044347066269
461599616      9.72395115868214                     5      39.7644347066269
461599616      9.72395115868214                     5      42.2244347066269
461599616      9.72395115868214                     5      44.6844347066269
461599616      9.72395115868214                     5      47.1444347066269
461599616      9.72395115868214                     5      49.6044347066269
461599616      10.4376571586821                     5      36.0744347066269
461599616      10.4376571586821                     5      38.5344347066269
461599616      10.4376571586821                     5      40.9944347066269
461599616      10.4376571586821                     5      43.4544347066269
461599616      10.4376571586821                     5      45.9144347066269
461599616      10.4376571586821                     5      48.3744347066269
461599616      10.4376571586821                     5     0.834434706626881
461599616      12.5791201586821                     5      34.8444347066269
461599616      12.5791201586821                     5      37.3044347066269
461599616      12.5791201586821                     5      39.7644347066269
461599616      12.5791201586821                     5      42.2244347066269
461599616      12.5791201586821                     5      44.6844347066269
461599616      12.5791201586821                     5      47.1444347066269
461599616      12.5791201586821                     5      49.6044347066269
461599616      11.8654131586821                     5      36.0744347066269
461599616      11.8654131586821                     5      38.5344347066269
461599616      11.8654131586821                     5      40.9944347066269
461599616      11.8654131586821                     5      43.4544347066269
461599616      11.8654131586821                     5      45.9144347066269
461599616      11.8654131586821                     5      48.3744347066269
461599616      11.8654131586821                     5     0.834434706626881
461599616      14.0068761586821                     5      34.8444347066269
461599616      14.0068761586821                     5      37.3044347066269
461599616      14.0068761586821                     5      39.7644347066269
461599616      14.0068761586821                     5      42.2244347066269
461599616      14.0068761586821                     5      44.6844347066269
461599616      14.0068761586821                     5      47.1444347066269
461599616      14.0068761586821                     5      49.6044347066269
461599616      14.7205821586821                     5      36.0744347066269
461599616      14.7205821586821                     5      38.5344347066269
461599616      14.7205821586821                     5      40.9944347066269
461599616      14.7205821586821                     5      43.4544347066269
461599616      14.7205821586821                     5      45.9144347066269
461599616      14.7205821586821                     5      48.3744347066269
461599616      14.7205821586821                     5     0.834434706626881
461599616      16.8620451586821                     5      34.8444347066269
461599616      16.8620451586821                     5      37.3044347066269
461599616      16.8620451586821                     5      39.7644347066269