search structure

300 atoms
2  atom types

0   17.131700 xlo xhi
0   10.000000 ylo yhi
0   50.000000 zlo zhi

Atoms

1 2 1.871132 5.000000 36.070155
2 2 1.871132 5.000000 38.530155
3 2 1.871132 5.000000 40.990155
4 2 1.871132 5.000000 43.450155
5 2 1.871132 5.000000 45.910155
6 2 1.871132 5.000000 48.370155
7 2 1.871132 5.000000 50.830155
8 2 4.012595 5.000000 34.840155
9 2 4.012595 5.000000 37.300155
10 2 4.012595 5.000000 39.760155
11 2 4.012595 5.000000 42.220155
12 2 4.012595 5.000000 44.680155
13 2 4.012595 5.000000 47.140155
14 2 4.012595 5.000000 49.600155
15 2 3.298888 5.000000 36.070155
16 2 3.298888 5.000000 38.530155
17 2 3.298888 5.000000 40.990155
18 2 3.298888 5.000000 43.450155
19 2 3.298888 5.000000 45.910155
20 2 3.298888 5.000000 48.370155
21 2 3.298888 5.000000 50.830155
22 2 5.440351 5.000000 34.840155
23 2 5.440351 5.000000 37.300155
24 2 5.440351 5.000000 39.760155
25 2 5.440351 5.000000 42.220155
26 2 5.440351 5.000000 44.680155
27 2 5.440351 5.000000 47.140155
28 2 5.440351 5.000000 49.600155
29 2 6.154057 5.000000 36.070155
30 2 6.154057 5.000000 38.530155
31 1 6.154057 5.000000 40.990155
32 1 6.154057 5.000000 43.450155
33 1 6.154057 5.000000 45.910155
34 1 6.154057 5.000000 48.370155
35 1 6.154057 5.000000 50.830155
36 1 8.295520 5.000000 34.840155
37 1 8.295520 5.000000 37.300155
38 1 8.295520 5.000000 39.760155
39 1 8.295520 5.000000 42.220155
40 1 8.295520 5.000000 44.680155
41 1 8.295520 5.000000 47.140155
42 1 8.295520 5.000000 49.600155
43 1 7.581813 5.000000 36.070155
44 1 7.581813 5.000000 38.530155
45 1 7.581813 5.000000 40.990155
46 1 7.581813 5.000000 43.450155
47 1 7.581813 5.000000 45.910155
48 1 7.581813 5.000000 48.370155
49 1 7.581813 5.000000 50.830155
50 1 9.723276 5.000000 34.840155
51 1 9.723276 5.000000 37.300155
52 1 9.723276 5.000000 39.760155
53 1 9.723276 5.000000 42.220155
54 1 9.723276 5.000000 44.680155
55 1 9.723276 5.000000 47.140155
56 1 9.723276 5.000000 49.600155
57 1 10.436982 5.000000 36.070155
58 1 10.436982 5.000000 38.530155
59 1 10.436982 5.000000 40.990155
60 1 10.436982 5.000000 43.450155
61 1 10.436982 5.000000 45.910155
62 1 10.436982 5.000000 48.370155
63 1 10.436982 5.000000 50.830155
64 1 12.578445 5.000000 34.840155
65 1 12.578445 5.000000 37.300155
66 1 12.578445 5.000000 39.760155
67 1 12.578445 5.000000 42.220155
68 1 12.578445 5.000000 44.680155
69 1 12.578445 5.000000 47.140155
70 1 12.578445 5.000000 49.600155
71 1 11.864738 5.000000 36.070155
72 1 11.864738 5.000000 38.530155
73 1 11.864738 5.000000 40.990155
74 1 11.864738 5.000000 43.450155
75 1 11.864738 5.000000 45.910155
76 1 11.864738 5.000000 48.370155
77 1 11.864738 5.000000 50.830155
78 1 14.006201 5.000000 34.840155
79 1 14.006201 5.000000 37.300155
80 1 14.006201 5.000000 39.760155
81 1 14.006201 5.000000 42.220155
82 1 14.006201 5.000000 44.680155
83 1 14.006201 5.000000 47.140155
84 1 14.006201 5.000000 49.600155
85 1 14.719907 5.000000 36.070155
86 1 14.719907 5.000000 38.530155
87 1 14.719907 5.000000 40.990155
88 1 14.719907 5.000000 43.450155
89 1 14.719907 5.000000 45.910155
90 1 14.719907 5.000000 48.370155
91 1 14.719907 5.000000 50.830155
92 1 16.861370 5.000000 34.840155
93 1 16.861370 5.000000 37.300155
94 1 16.861370 5.000000 39.760155
95 1 16.861370 5.000000 42.220155
96 1 16.861370 5.000000 44.680155
97 1 16.861370 5.000000 47.140155
98 1 16.861370 5.000000 49.600155
99 1 16.147663 5.000000 36.070155
100 1 16.147663 5.000000 38.530155
101 1 16.147663 5.000000 40.990155
102 1 16.147663 5.000000 43.450155
103 1 16.147663 5.000000 45.910155
104 1 16.147663 5.000000 48.370155
105 1 16.147663 5.000000 50.830155
106 1 1.157426 5.000000 34.840155
107 1 1.157426 5.000000 37.300155
108 1 1.157426 5.000000 39.760155
109 1 1.157426 5.000000 42.220155
110 1 1.157426 5.000000 44.680155
111 1 1.157426 5.000000 47.140155
112 1 1.157426 5.000000 49.600155
113 2 1.300989 5.000000 51.817655
114 2 3.868860 5.000000 51.817655
115 2 5.586141 5.000000 51.818655
116 2 8.151785 5.000000 51.817655
117 2 9.869066 5.000000 51.818655
118 2 12.434710 5.000000 51.817655
119 2 14.151991 5.000000 51.818655
120 2 16.717635 5.000000 51.817655
121 1 -0.039917 5.000000 8.565500
122 1 -0.039917 5.000000 12.826500
123 1 -0.039917 5.000000 17.087500
124 1 -0.039917 5.000000 21.348000
125 1 -0.039917 5.000000 9.986000
126 1 -0.039917 5.000000 14.246500
127 1 -0.039917 5.000000 18.507500
128 1 -0.039917 5.000000 22.768500
129 1 15.868066 5.000000 10.696000
130 1 15.868066 5.000000 14.957000
131 1 15.868066 5.000000 19.217500
132 1 15.868066 5.000000 23.478500
133 1 15.868066 5.000000 7.855500
134 1 15.868066 5.000000 12.116500
135 1 15.868066 5.000000 16.377000
136 1 15.868066 5.000000 20.638000
137 1 14.644348 5.000000 8.565500
138 1 14.644348 5.000000 12.826500
139 1 14.644348 5.000000 17.087500
140 1 14.644348 5.000000 21.348000
141 1 13.420631 5.000000 10.696000
142 1 13.420631 5.000000 14.957000
143 1 13.420631 5.000000 19.217500
144 1 13.420631 5.000000 23.478500
145 1 14.644348 5.000000 9.986000
146 1 14.644348 5.000000 14.246500
147 1 14.644348 5.000000 18.507500
148 1 14.644348 5.000000 22.768500
149 1 13.420631 5.000000 7.855500
150 1 13.420631 5.000000 12.116500
151 1 13.420631 5.000000 16.377000
152 1 13.420631 5.000000 20.638000
153 1 12.197085 5.000000 8.565500
154 1 12.197085 5.000000 12.826500
155 1 12.197085 5.000000 17.087500
156 1 12.197085 5.000000 21.348000
157 1 10.973368 5.000000 10.696000
158 1 10.973368 5.000000 14.957000
159 1 10.973368 5.000000 19.217500
160 1 10.973368 5.000000 23.478500
161 1 12.197085 5.000000 9.986000
162 1 12.197085 5.000000 14.246500
163 1 12.197085 5.000000 18.507500
164 1 12.197085 5.000000 22.768500
165 1 10.973368 5.000000 7.855500
166 1 10.973368 5.000000 12.116500
167 1 10.973368 5.000000 16.377000
168 1 10.973368 5.000000 20.638000
169 1 9.749650 5.000000 8.565500
170 1 9.749650 5.000000 12.826500
171 1 9.749650 5.000000 17.087500
172 1 9.749650 5.000000 21.348000
173 1 8.525933 5.000000 10.696000
174 1 8.525933 5.000000 14.957000
175 1 8.525933 5.000000 19.217500
176 1 8.525933 5.000000 23.478500
177 1 9.749650 5.000000 9.986000
178 1 9.749650 5.000000 14.246500
179 1 9.749650 5.000000 18.507500
180 1 9.749650 5.000000 22.768500
181 1 8.525933 5.000000 7.855500
182 1 8.525933 5.000000 12.116500
183 1 8.525933 5.000000 16.377000
184 1 8.525933 5.000000 20.638000
185 1 7.302216 5.000000 8.565500
186 1 7.302216 5.000000 12.826500
187 1 7.302216 5.000000 17.087500
188 1 7.302216 5.000000 21.348000
189 1 6.078498 5.000000 10.696000
190 1 6.078498 5.000000 14.957000
191 1 6.078498 5.000000 19.217500
192 1 6.078498 5.000000 23.478500
193 1 7.302216 5.000000 9.986000
194 1 7.302216 5.000000 14.246500
195 1 7.302216 5.000000 18.507500
196 1 7.302216 5.000000 22.768500
197 1 6.078498 5.000000 7.855500
198 1 6.078498 5.000000 12.116500
199 1 6.078498 5.000000 16.377000
200 1 6.078498 5.000000 20.638000
201 1 4.854781 5.000000 8.565500
202 1 4.854781 5.000000 12.826500
203 1 4.854781 5.000000 17.087500
204 1 4.854781 5.000000 21.348000
205 1 3.631235 5.000000 10.696000
206 1 3.631235 5.000000 14.957000
207 1 3.631235 5.000000 19.217500
208 1 3.631235 5.000000 23.478500
209 1 4.854781 5.000000 9.986000
210 1 4.854781 5.000000 14.246500
211 1 4.854781 5.000000 18.507500
212 1 4.854781 5.000000 22.768500
213 1 3.631235 5.000000 7.855500
214 1 3.631235 5.000000 12.116500
215 1 3.631235 5.000000 16.377000
216 1 3.631235 5.000000 20.638000
217 1 2.407518 5.000000 8.565500
218 1 2.407518 5.000000 12.826500
219 1 2.407518 5.000000 17.087500
220 1 2.407518 5.000000 21.348000
221 1 1.183800 5.000000 10.696000
222 1 1.183800 5.000000 14.957000
223 1 1.183800 5.000000 19.217500
224 1 1.183800 5.000000 23.478500
225 1 2.407518 5.000000 9.986000
226 1 2.407518 5.000000 14.246500
227 1 2.407518 5.000000 18.507500
228 1 2.407518 5.000000 22.768500
229 1 1.183800 5.000000 7.855500
230 1 1.183800 5.000000 12.116500
231 1 1.183800 5.000000 16.377000
232 1 1.183800 5.000000 20.638000
233 2 15.865667 5.000000 6.715500
234 2 13.423030 5.000000 6.715500
235 2 10.975766 5.000000 6.715500
236 2 8.528332 5.000000 6.715500
237 2 6.080897 5.000000 6.715500
238 2 3.633634 5.000000 6.715500
239 2 1.181402 5.000000 6.715500
240 2 4.435829 4.838734 29.884471
241 2 9.177524 5.107598 24.742488
242 2 11.064127 4.782588 25.206607
243 2 11.326777 4.254166 26.739654
244 2 12.983189 4.290976 24.872362
245 2 6.838683 2.561454 23.500000
246 2 15.466461 4.414387 23.726060
247 2 12.992651 3.611074 24.354934
248 2 13.818281 5.087728 24.809856
249 2 15.642015 3.844891 31.668154
250 2 2.951547 5.717000 29.637589
251 2 16.912082 8.686204 29.212876
252 2 11.806144 7.202604 31.717266
253 2 6.426193 8.432514 27.136453
254 2 11.039651 1.733394 29.477046
255 2 4.508094 6.956120 29.937375
256 2 12.172968 7.186566 30.010116
257 2 10.339606 7.888013 31.500522
258 2 5.135549 4.460740 34.763655
259 2 5.853363 0.842016 33.324776
260 2 17.110922 0.414005 34.763655
261 2 7.277564 2.157360 34.763655
262 2 7.620978 6.798428 30.707132
263 2 9.946155 3.375241 28.487298
264 2 16.385892 7.845394 31.360900
265 2 2.988248 7.563886 32.907442
266 2 15.669549 8.144884 30.055764
267 2 14.006811 4.979061 34.496888
268 1 3.969937 2.012451 24.071581
269 1 4.135795 2.073728 23.500000
270 1 1.791614 2.815707 23.500000
271 1 9.205203 3.557008 26.183634
272 1 1.491484 5.435384 23.500000
273 1 12.634882 7.997616 23.500000
274 1 10.501853 9.900346 23.500000
275 1 7.515613 0.964038 23.500000
276 1 11.379395 7.066396 24.846814
277 1 15.218251 7.039467 24.228423
278 1 7.826661 0.802201 25.246612
279 1 10.757084 5.674801 31.296796
280 1 4.010210 7.120267 26.308344
281 1 3.067764 8.904644 23.942774
282 1 14.966489 9.572595 27.223098
283 1 17.064068 7.824560 27.336997
284 1 3.413596 8.854562 24.870005
285 1 3.435463 9.588430 29.082455
286 1 0.076018 9.628022 29.633936
287 1 16.260411 6.338737 28.188877
288 1 1.709661 6.481605 24.842950
289 1 2.661583 8.312119 25.135201
290 1 13.685028 0.315331 32.347360
291 1 5.047242 8.716664 31.396058
292 1 2.349353 1.878585 33.965098
293 1 15.988465 9.275967 31.635494
294 1 0.619457 1.534380 33.502869
295 1 4.467013 7.465143 28.336467
296 1 15.406160 2.508094 33.730602
297 1 16.088812 8.016567 31.152929
298 1 5.768570 8.299378 28.438111
299 1 7.993171 0.499388 31.813388
300 1 2.603475 0.743548 34.255772
