300
Atoms. Timestep: 0
176186272             13.622972                     5             36.745589
176186272             13.622972                     5             39.205589
176186272             13.622972                     5             41.665589
176186272             13.622972                     5             44.125589
176186272             13.622972                     5             46.585589
176186272             13.622972                     5             49.045589
176186272             13.622972                     5              1.505589
176186272             15.764435                     5             35.515589
176186272             15.764435                     5             37.975589
176186272             15.764435                     5             40.435589
176186272             15.764435                     5             42.895589
176186272             15.764435                     5             45.355589
176186272             15.764435                     5             47.815589
176186272             15.764435                     5     0.275588999999997
176186272             15.050728                     5             36.745589
176186272             15.050728                     5             39.205589
176186272             15.050728                     5             41.665589
176186272             15.050728                     5             44.125589
176186272             15.050728                     5             46.585589
176186272             15.050728                     5             49.045589
176186272             15.050728                     5              1.505589
176186272              0.060491                     5             35.515589
176186272              0.060491                     5             37.975589
176186272              0.060491                     5             40.435589
176186272              0.060491                     5             42.895589
176186272              0.060491                     5             45.355589
176186272              0.060491                     5             47.815589
176186272              0.060491                     5     0.275588999999997
176186272              0.774197                     5             36.745589
176186272              0.774197                     5             39.205589
176186240              0.774197                     5             41.665589
176186240              0.774197                     5             44.125589
176186240              0.774197                     5             46.585589
176186240              0.774197                     5             49.045589
176186240              0.774197                     5              1.505589
176186240               2.91566                     5             35.515589
176186240               2.91566                     5             37.975589
176186240               2.91566                     5             40.435589
176186240               2.91566                     5             42.895589
176186240               2.91566                     5             45.355589
176186240               2.91566                     5             47.815589
176186240               2.91566                     5     0.275588999999997
176186240              2.201953                     5             36.745589
176186240              2.201953                     5             39.205589
176186240              2.201953                     5             41.665589
176186240              2.201953                     5             44.125589
176186240              2.201953                     5             46.585589
176186240              2.201953                     5             49.045589
176186240              2.201953                     5              1.505589
176186240              4.343416                     5             35.515589
176186240              4.343416                     5             37.975589
176186240              4.343416                     5             40.435589
176186240              4.343416                     5             42.895589
176186240              4.343416                     5             45.355589
176186240              4.343416                     5             47.815589
176186240              4.343416                     5     0.275588999999997
176186240              5.057122                     5             36.745589
176186240              5.057122                     5             39.205589
176186240              5.057122                     5             41.665589
176186240              5.057122                     5             44.125589
176186240              5.057122                     5             46.585589
176186240              5.057122                     5             49.045589
176186240              5.057122                     5              1.505589
176186240              7.198585                     5             35.515589
176186240              7.198585                     5             37.975589
176186240              7.198585                     5             40.435589
176186240              7.198585                     5             42.895589
176186240              7.198585                     5             45.355589
176186240              7.198585                     5             47.815589
176186240              7.198585                     5     0.275588999999997
176186240              6.484878                     5             36.745589
176186240              6.484878                     5             39.205589
176186240              6.484878                     5             41.665589
176186240              6.484878                     5             44.125589
176186240              6.484878                     5             46.585589
176186240              6.484878                     5             49.045589
176186240              6.484878                     5              1.505589
176186240              8.626341                     5             35.515589
176186240              8.626341                     5             37.975589
176186240              8.626341                     5             40.435589
176186240              8.626341                     5             42.895589
176186240              8.626341                     5             45.355589
176186240              8.626341                     5             47.815589
176186240              8.626341                     5     0.275588999999997
176186240              9.340047                     5             36.745589
176186240              9.340047                     5             39.205589
176186240              9.340047                     5             41.665589
176186240              9.340047                     5             44.125589
176186240              9.340047                     5             46.585589
176186240              9.340047                     5             49.045589
176186240              9.340047                     5              1.505589
176186240              11.48151                     5             35.515589
176186240              11.48151                     5             37.975589
176186240              11.48151                     5             40.435589
176186240              11.48151                     5             42.895589
176186240              11.48151                     5             45.355589
176186240              11.48151                     5             47.815589
176186240              11.48151                     5     0.275588999999997
176186240             10.767803                     5             36.745589
176186240             10.767803                     5             39.205589
176186240             10.767803                     5             41.665589
176186240             10.767803                     5             44.125589
176186240             10.767803                     5             46.585589
176186240             10.767803                     5             49.045589
176186240             10.767803                     5              1.505589
176186240             12.909266                     5             35.515589
176186240             12.909266                     5             37.975589
176186240             12.909266                     5             40.435589
176186240             12.909266                     5             42.895589
176186240             12.909266                     5             45.355589
176186240             12.909266                     5             47.815589
176186240             12.909266                     5     0.275588999999997
176186272             13.052829                     5              2.493089
176186272               15.6207                     5              2.493089
176186272              0.206282                     5              2.494089
176186272              2.771925                     5              2.493089
176186272              4.489207                     5              2.494089
176186272               7.05485                     5              2.493089
176186272              8.772132                     5              2.494089
176186272             11.337775                     5              2.493089
176186240             17.091783                     5                8.5655
176186240             17.091783                     5               12.8265
176186240             17.091783                     5               17.0875
176186240             17.091783                     5                21.348
176186240             17.091783                     5                 9.986
176186240             17.091783                     5               14.2465
176186240             17.091783                     5               18.5075
176186240             17.091783                     5               22.7685
176186240             15.868066                     5                10.696
176186240             15.868066                     5                14.957
176186240             15.868066                     5               19.2175
176186240             15.868066                     5               23.4785
176186240             15.868066                     5                7.8555
176186240             15.868066                     5               12.1165
176186240             15.868066                     5                16.377
176186240             15.868066                     5                20.638
176186240             14.644348                     5                8.5655
176186240             14.644348                     5               12.8265
176186240             14.644348                     5               17.0875
176186240             14.644348                     5                21.348
176186240             13.420631                     5                10.696
176186240             13.420631                     5                14.957
176186240             13.420631                     5               19.2175
176186240             13.420631                     5               23.4785
176186240             14.644348                     5                 9.986
176186240             14.644348                     5               14.2465
176186240             14.644348                     5               18.5075
176186240             14.644348                     5               22.7685
176186240             13.420631                     5                7.8555
176186240             13.420631                     5               12.1165
176186240             13.420631                     5                16.377
176186240             13.420631                     5                20.638
176186240             12.197085                     5                8.5655
176186240             12.197085                     5               12.8265
176186240             12.197085                     5               17.0875
176186240             12.197085                     5                21.348
176186240             10.973368                     5                10.696
176186240             10.973368                     5                14.957
176186240             10.973368                     5               19.2175
176186240             10.973368                     5               23.4785
176186240             12.197085                     5                 9.986
176186240             12.197085                     5               14.2465
176186240             12.197085                     5               18.5075
176186240             12.197085                     5               22.7685
176186240             10.973368                     5                7.8555
176186240             10.973368                     5               12.1165
176186240             10.973368                     5                16.377
176186240             10.973368                     5                20.638
176186240               9.74965                     5                8.5655
176186240               9.74965                     5               12.8265
176186240               9.74965                     5               17.0875
176186240               9.74965                     5                21.348
176186240              8.525933                     5                10.696
176186240              8.525933                     5                14.957
176186240              8.525933                     5               19.2175
176186240              8.525933                     5               23.4785
176186240               9.74965                     5                 9.986
176186240               9.74965                     5               14.2465
176186240               9.74965                     5               18.5075
176186240               9.74965                     5               22.7685
176186240              8.525933                     5                7.8555
176186240              8.525933                     5               12.1165
176186240              8.525933                     5                16.377
176186240              8.525933                     5                20.638
176186240              7.302216                     5                8.5655
176186240              7.302216                     5               12.8265
176186240              7.302216                     5               17.0875
176186240              7.302216                     5                21.348
176186240              6.078498                     5                10.696
176186240              6.078498                     5                14.957
176186240              6.078498                     5               19.2175
176186240              6.078498                     5               23.4785
176186240              7.302216                     5                 9.986
176186240              7.302216                     5               14.2465
176186240              7.302216                     5               18.5075
176186240              7.302216                     5               22.7685
176186240              6.078498                     5                7.8555
176186240              6.078498                     5               12.1165
176186240              6.078498                     5                16.377
176186240              6.078498                     5                20.638
176186240              4.854781                     5                8.5655
176186240              4.854781                     5               12.8265
176186240              4.854781                     5               17.0875
176186240              4.854781                     5                21.348
176186240              3.631235                     5                10.696
176186240              3.631235                     5                14.957
176186240              3.631235                     5               19.2175
176186240              3.631235                     5               23.4785
176186240              4.854781                     5                 9.986
176186240              4.854781                     5               14.2465
176186240              4.854781                     5               18.5075
176186240              4.854781                     5               22.7685
176186240              3.631235                     5                7.8555
176186240              3.631235                     5               12.1165
176186240              3.631235                     5                16.377
176186240              3.631235                     5                20.638
176186240              2.407518                     5                8.5655
176186240              2.407518                     5               12.8265
176186240              2.407518                     5               17.0875
176186240              2.407518                     5                21.348
176186240                1.1838                     5                10.696
176186240                1.1838                     5                14.957
176186240                1.1838                     5               19.2175
176186240                1.1838                     5               23.4785
176186240              2.407518                     5                 9.986
176186240              2.407518                     5               14.2465
176186240              2.407518                     5               18.5075
176186240              2.407518                     5               22.7685
176186240                1.1838                     5                7.8555
176186240                1.1838                     5               12.1165
176186240                1.1838                     5                16.377
176186240                1.1838                     5                20.638
176186272             15.865667                     5                6.7155
176186272              13.42303                     5                6.7155
176186272             10.975766                     5                6.7155
176186272              8.528332                     5                6.7155
176186272              6.080897                     5                6.7155
176186272              3.633634                     5                6.7155
176186272              1.181402                     5                6.7155
176186272             15.274301                 2.451             25.823611
176186272             11.867469              5.965546                  23.5
176186272             16.200263              5.748183             26.128204
176186272             14.073945              7.493105             26.278762
176186272             15.076172              5.848871             25.726868
176186272             16.774116              6.872966             30.407202
176186272              3.740656              2.999348             24.315316
176186272              2.570622              3.541098              27.10307
176186272             11.209829              6.044135             27.422556
176186272              5.799808              9.056846             28.534349
176186272              6.805368              6.716208             33.176204
176186272              2.327495               9.61972             31.498403
176186272              4.464068              1.093388             32.177521
176186272              0.101562              5.161728             33.458563
176186272             13.952003              5.360733             33.393545
176186272              6.008969              6.519499             28.480203
176186272             14.274895              9.692438              34.41002
176186272              3.346363              9.712409             30.574928
176186272              5.111137              1.919436             32.776649
176186272               6.33415              2.263839             31.721938
176186272              2.445653              5.856716             34.086454
176186272              5.690108              8.869317             31.003337
176186272              1.603108              5.085322             35.439089
176186272              9.212163              9.007123             35.439089
176186272             16.452105              1.992141             34.190533
176186272              8.048965              5.426163             31.015921
176186272              5.865366              4.324239             30.466277
176186272              15.79547              4.750171             30.519977
176186240              0.296106              1.779768             25.879581
176186240             15.789708              3.018614             24.549255
176186240             10.417474              2.099431             26.446969
176186240             13.566481              3.361363                  23.5
176186240             13.501303              9.019507             25.121694
176186240             12.027404              9.365085             25.550639
176186240              5.659544              2.001899             27.894284
176186240              0.781996              5.588486                  23.5
176186240              5.806618               0.15052                  23.5
176186240             13.289927              1.793005             27.183061
176186240              7.647338              9.010443                  23.5
176186240             16.245659              6.329893             28.347176
176186240              4.700272              3.090394              30.54142
176186240              2.127077              5.265819             29.267763
176186240              4.902458              7.170628              31.38122
176186240              4.537835              7.190112             31.533526
176186240               6.65027              0.923102             30.347186
176186240              2.215963              4.511575             27.346206
176186240             16.355164              7.448558             30.905709
176186240             15.005295              0.979357             29.048165
176186240              9.824989              1.782247             26.022572
176186240             11.085758              1.596862             24.178418
176186240             11.326688              3.019671             32.956603
176186240              0.688071              7.948091             33.464251
176186240              8.289768              0.034011             35.237944
176186240              5.719073              2.103431             35.439089
176186240              4.722003              9.501059             32.130369
176186240             13.039012              3.547964             27.218424
176186240              9.542792              3.088879             32.380828
176186240              9.590782              4.083212               34.8313
176186240              6.727592              1.348859             26.615386
176186240              7.333166              5.538102             35.439089
176186240             17.050223              8.378879             27.395741
300
Atoms. Timestep: 10
176186272      13.6181342767873                     5      36.7522089240884
176186272      13.6181342767873                     5      39.2122089240884
176186272      13.6181342767873                     5      41.6722089240884
176186272      13.6181342767873                     5      44.1322089240884
176186272      13.6181342767873                     5      46.5922089240884
176186272      13.6181342767873                     5      49.0522089240884
176186272      13.6181342767873                     5      1.51220892408839
176186272      15.7595972767873                     5      35.5222089240884
176186272      15.7595972767873                     5      37.9822089240884
176186272      15.7595972767873                     5      40.4422089240884
176186272      15.7595972767873                     5      42.9022089240884
176186272      15.7595972767873                     5      45.3622089240884
176186272      15.7595972767873                     5      47.8222089240884
176186272      15.7595972767873                     5     0.282208924088384
176186272      15.0458902767873                     5      36.7522089240884
176186272      15.0458902767873                     5      39.2122089240884
176186272      15.0458902767873                     5      41.6722089240884
176186272      15.0458902767873                     5      44.1322089240884
176186272      15.0458902767873                     5      46.5922089240884
176186272      15.0458902767873                     5      49.0522089240884
176186272      15.0458902767873                     5      1.51220892408839
176186272    0.0556532767873241                     5      35.5222089240884
176186272    0.0556532767873241                     5      37.9822089240884
176186272    0.0556532767873241                     5      40.4422089240884
176186272    0.0556532767873241                     5      42.9022089240884
176186272    0.0556532767873241                     5      45.3622089240884
176186272    0.0556532767873241                     5      47.8222089240884
176186272    0.0556532767873241                     5     0.282208924088384
176186272     0.769359276787324                     5      36.7522089240884
176186272     0.769359276787324                     5      39.2122089240884
176186240     0.769359276787324                     5      41.6722089240884
176186240     0.769359276787324                     5      44.1322089240884
176186240     0.769359276787324                     5      46.5922089240884
176186240     0.769359276787324                     5      49.0522089240884
176186240     0.769359276787324                     5      1.51220892408839
176186240      2.91082227678732                     5      35.5222089240884
176186240      2.91082227678732                     5      37.9822089240884
176186240      2.91082227678732                     5      40.4422089240884
176186240      2.91082227678732                     5      42.9022089240884
176186240      2.91082227678732                     5      45.3622089240884
176186240      2.91082227678732                     5      47.8222089240884
176186240      2.91082227678732                     5     0.282208924088384
176186240      2.19711527678732                     5      36.7522089240884
176186240      2.19711527678732                     5      39.2122089240884
176186240      2.19711527678732                     5      41.6722089240884
176186240      2.19711527678732                     5      44.1322089240884
176186240      2.19711527678732                     5      46.5922089240884
176186240      2.19711527678732                     5      49.0522089240884
176186240      2.19711527678732                     5      1.51220892408839
176186240      4.33857827678732                     5      35.5222089240884
176186240      4.33857827678732                     5      37.9822089240884
176186240      4.33857827678732                     5      40.4422089240884
176186240      4.33857827678732                     5      42.9022089240884
176186240      4.33857827678732                     5      45.3622089240884
176186240      4.33857827678732                     5      47.8222089240884
176186240      4.33857827678732                     5     0.282208924088384
176186240      5.05228427678732                     5      36.7522089240884
176186240      5.05228427678732                     5      39.2122089240884
176186240      5.05228427678732                     5      41.6722089240884
176186240      5.05228427678732                     5      44.1322089240884
176186240      5.05228427678732                     5      46.5922089240884
176186240      5.05228427678732                     5      49.0522089240884
176186240      5.05228427678732                     5      1.51220892408839
176186240      7.19374727678732                     5      35.5222089240884
176186240      7.19374727678732                     5      37.9822089240884
176186240      7.19374727678732                     5      40.4422089240884
176186240      7.19374727678732                     5      42.9022089240884
176186240      7.19374727678732                     5      45.3622089240884
176186240      7.19374727678732                     5      47.8222089240884
176186240      7.19374727678732                     5     0.282208924088384
176186240      6.48004027678732                     5      36.7522089240884
176186240      6.48004027678732                     5      39.2122089240884
176186240      6.48004027678732                     5      41.6722089240884
176186240      6.48004027678732                     5      44.1322089240884
176186240      6.48004027678732                     5      46.5922089240884
176186240      6.48004027678732                     5      49.0522089240884
176186240      6.48004027678732                     5      1.51220892408839
176186240      8.62150327678733                     5      35.5222089240884
176186240      8.62150327678733                     5      37.9822089240884
176186240      8.62150327678733                     5      40.4422089240884
176186240      8.62150327678733                     5      42.9022089240884
176186240      8.62150327678733                     5      45.3622089240884
176186240      8.62150327678733                     5      47.8222089240884
176186240      8.62150327678733                     5     0.282208924088384
176186240      9.33520927678733                     5      36.7522089240884
176186240      9.33520927678733                     5      39.2122089240884
176186240      9.33520927678733                     5      41.6722089240884
176186240      9.33520927678733                     5      44.1322089240884
176186240      9.33520927678733                     5      46.5922089240884
176186240      9.33520927678733                     5      49.0522089240884
176186240      9.33520927678733                     5      1.51220892408839
176186240      11.4766722767873                     5      35.5222089240884
176186240      11.4766722767873                     5      37.9822089240884
176186240      11.4766722767873                     5      40.4422089240884