search structure

300 atoms
2  atom types

0   17.131700 xlo xhi
0   10.000000 ylo yhi
0   50.000000 zlo zhi

Atoms

1 2 13.622972 5.000000 36.745589
2 2 13.622972 5.000000 39.205589
3 2 13.622972 5.000000 41.665589
4 2 13.622972 5.000000 44.125589
5 2 13.622972 5.000000 46.585589
6 2 13.622972 5.000000 49.045589
7 2 13.622972 5.000000 51.505589
8 2 15.764435 5.000000 35.515589
9 2 15.764435 5.000000 37.975589
10 2 15.764435 5.000000 40.435589
11 2 15.764435 5.000000 42.895589
12 2 15.764435 5.000000 45.355589
13 2 15.764435 5.000000 47.815589
14 2 15.764435 5.000000 50.275589
15 2 15.050728 5.000000 36.745589
16 2 15.050728 5.000000 39.205589
17 2 15.050728 5.000000 41.665589
18 2 15.050728 5.000000 44.125589
19 2 15.050728 5.000000 46.585589
20 2 15.050728 5.000000 49.045589
21 2 15.050728 5.000000 51.505589
22 2 0.060491 5.000000 35.515589
23 2 0.060491 5.000000 37.975589
24 2 0.060491 5.000000 40.435589
25 2 0.060491 5.000000 42.895589
26 2 0.060491 5.000000 45.355589
27 2 0.060491 5.000000 47.815589
28 2 0.060491 5.000000 50.275589
29 2 0.774197 5.000000 36.745589
30 2 0.774197 5.000000 39.205589
31 1 0.774197 5.000000 41.665589
32 1 0.774197 5.000000 44.125589
33 1 0.774197 5.000000 46.585589
34 1 0.774197 5.000000 49.045589
35 1 0.774197 5.000000 51.505589
36 1 2.915660 5.000000 35.515589
37 1 2.915660 5.000000 37.975589
38 1 2.915660 5.000000 40.435589
39 1 2.915660 5.000000 42.895589
40 1 2.915660 5.000000 45.355589
41 1 2.915660 5.000000 47.815589
42 1 2.915660 5.000000 50.275589
43 1 2.201953 5.000000 36.745589
44 1 2.201953 5.000000 39.205589
45 1 2.201953 5.000000 41.665589
46 1 2.201953 5.000000 44.125589
47 1 2.201953 5.000000 46.585589
48 1 2.201953 5.000000 49.045589
49 1 2.201953 5.000000 51.505589
50 1 4.343416 5.000000 35.515589
51 1 4.343416 5.000000 37.975589
52 1 4.343416 5.000000 40.435589
53 1 4.343416 5.000000 42.895589
54 1 4.343416 5.000000 45.355589
55 1 4.343416 5.000000 47.815589
56 1 4.343416 5.000000 50.275589
57 1 5.057122 5.000000 36.745589
58 1 5.057122 5.000000 39.205589
59 1 5.057122 5.000000 41.665589
60 1 5.057122 5.000000 44.125589
61 1 5.057122 5.000000 46.585589
62 1 5.057122 5.000000 49.045589
63 1 5.057122 5.000000 51.505589
64 1 7.198585 5.000000 35.515589
65 1 7.198585 5.000000 37.975589
66 1 7.198585 5.000000 40.435589
67 1 7.198585 5.000000 42.895589
68 1 7.198585 5.000000 45.355589
69 1 7.198585 5.000000 47.815589
70 1 7.198585 5.000000 50.275589
71 1 6.484878 5.000000 36.745589
72 1 6.484878 5.000000 39.205589
73 1 6.484878 5.000000 41.665589
74 1 6.484878 5.000000 44.125589
75 1 6.484878 5.000000 46.585589
76 1 6.484878 5.000000 49.045589
77 1 6.484878 5.000000 51.505589
78 1 8.626341 5.000000 35.515589
79 1 8.626341 5.000000 37.975589
80 1 8.626341 5.000000 40.435589
81 1 8.626341 5.000000 42.895589
82 1 8.626341 5.000000 45.355589
83 1 8.626341 5.000000 47.815589
84 1 8.626341 5.000000 50.275589
85 1 9.340047 5.000000 36.745589
86 1 9.340047 5.000000 39.205589
87 1 9.340047 5.000000 41.665589
88 1 9.340047 5.000000 44.125589
89 1 9.340047 5.000000 46.585589
90 1 9.340047 5.000000 49.045589
91 1 9.340047 5.000000 51.505589
92 1 11.481510 5.000000 35.515589
93 1 11.481510 5.000000 37.975589
94 1 11.481510 5.000000 40.435589
95 1 11.481510 5.000000 42.895589
96 1 11.481510 5.000000 45.355589
97 1 11.481510 5.000000 47.815589
98 1 11.481510 5.000000 50.275589
99 1 10.767803 5.000000 36.745589
100 1 10.767803 5.000000 39.205589
101 1 10.767803 5.000000 41.665589
102 1 10.767803 5.000000 44.125589
103 1 10.767803 5.000000 46.585589
104 1 10.767803 5.000000 49.045589
105 1 10.767803 5.000000 51.505589
106 1 12.909266 5.000000 35.515589
107 1 12.909266 5.000000 37.975589
108 1 12.909266 5.000000 40.435589
109 1 12.909266 5.000000 42.895589
110 1 12.909266 5.000000 45.355589
111 1 12.909266 5.000000 47.815589
112 1 12.909266 5.000000 50.275589
113 2 13.052829 5.000000 52.493089
114 2 15.620700 5.000000 52.493089
115 2 0.206282 5.000000 52.494089
116 2 2.771925 5.000000 52.493089
117 2 4.489207 5.000000 52.494089
118 2 7.054850 5.000000 52.493089
119 2 8.772132 5.000000 52.494089
120 2 11.337775 5.000000 52.493089
121 1 -0.039917 5.000000 8.565500
122 1 -0.039917 5.000000 12.826500
123 1 -0.039917 5.000000 17.087500
124 1 -0.039917 5.000000 21.348000
125 1 -0.039917 5.000000 9.986000
126 1 -0.039917 5.000000 14.246500
127 1 -0.039917 5.000000 18.507500
128 1 -0.039917 5.000000 22.768500
129 1 15.868066 5.000000 10.696000
130 1 15.868066 5.000000 14.957000
131 1 15.868066 5.000000 19.217500
132 1 15.868066 5.000000 23.478500
133 1 15.868066 5.000000 7.855500
134 1 15.868066 5.000000 12.116500
135 1 15.868066 5.000000 16.377000
136 1 15.868066 5.000000 20.638000
137 1 14.644348 5.000000 8.565500
138 1 14.644348 5.000000 12.826500
139 1 14.644348 5.000000 17.087500
140 1 14.644348 5.000000 21.348000
141 1 13.420631 5.000000 10.696000
142 1 13.420631 5.000000 14.957000
143 1 13.420631 5.000000 19.217500
144 1 13.420631 5.000000 23.478500
145 1 14.644348 5.000000 9.986000
146 1 14.644348 5.000000 14.246500
147 1 14.644348 5.000000 18.507500
148 1 14.644348 5.000000 22.768500
149 1 13.420631 5.000000 7.855500
150 1 13.420631 5.000000 12.116500
151 1 13.420631 5.000000 16.377000
152 1 13.420631 5.000000 20.638000
153 1 12.197085 5.000000 8.565500
154 1 12.197085 5.000000 12.826500
155 1 12.197085 5.000000 17.087500
156 1 12.197085 5.000000 21.348000
157 1 10.973368 5.000000 10.696000
158 1 10.973368 5.000000 14.957000
159 1 10.973368 5.000000 19.217500
160 1 10.973368 5.000000 23.478500
161 1 12.197085 5.000000 9.986000
162 1 12.197085 5.000000 14.246500
163 1 12.197085 5.000000 18.507500
164 1 12.197085 5.000000 22.768500
165 1 10.973368 5.000000 7.855500
166 1 10.973368 5.000000 12.116500
167 1 10.973368 5.000000 16.377000
168 1 10.973368 5.000000 20.638000
169 1 9.749650 5.000000 8.565500
170 1 9.749650 5.000000 12.826500
171 1 9.749650 5.000000 17.087500
172 1 9.749650 5.000000 21.348000
173 1 8.525933 5.000000 10.696000
174 1 8.525933 5.000000 14.957000
175 1 8.525933 5.000000 19.217500
176 1 8.525933 5.000000 23.478500
177 1 9.749650 5.000000 9.986000
178 1 9.749650 5.000000 14.246500
179 1 9.749650 5.000000 18.507500
180 1 9.749650 5.000000 22.768500
181 1 8.525933 5.000000 7.855500
182 1 8.525933 5.000000 12.116500
183 1 8.525933 5.000000 16.377000
184 1 8.525933 5.000000 20.638000
185 1 7.302216 5.000000 8.565500
186 1 7.302216 5.000000 12.826500
187 1 7.302216 5.000000 17.087500
188 1 7.302216 5.000000 21.348000
189 1 6.078498 5.000000 10.696000
190 1 6.078498 5.000000 14.957000
191 1 6.078498 5.000000 19.217500
192 1 6.078498 5.000000 23.478500
193 1 7.302216 5.000000 9.986000
194 1 7.302216 5.000000 14.246500
195 1 7.302216 5.000000 18.507500
196 1 7.302216 5.000000 22.768500
197 1 6.078498 5.000000 7.855500
198 1 6.078498 5.000000 12.116500
199 1 6.078498 5.000000 16.377000
200 1 6.078498 5.000000 20.638000
201 1 4.854781 5.000000 8.565500
202 1 4.854781 5.000000 12.826500
203 1 4.854781 5.000000 17.087500
204 1 4.854781 5.000000 21.348000
205 1 3.631235 5.000000 10.696000
206 1 3.631235 5.000000 14.957000
207 1 3.631235 5.000000 19.217500
208 1 3.631235 5.000000 23.478500
209 1 4.854781 5.000000 9.986000
210 1 4.854781 5.000000 14.246500
211 1 4.854781 5.000000 18.507500
212 1 4.854781 5.000000 22.768500
213 1 3.631235 5.000000 7.855500
214 1 3.631235 5.000000 12.116500
215 1 3.631235 5.000000 16.377000
216 1 3.631235 5.000000 20.638000
217 1 2.407518 5.000000 8.565500
218 1 2.407518 5.000000 12.826500
219 1 2.407518 5.000000 17.087500
220 1 2.407518 5.000000 21.348000
221 1 1.183800 5.000000 10.696000
222 1 1.183800 5.000000 14.957000
223 1 1.183800 5.000000 19.217500
224 1 1.183800 5.000000 23.478500
225 1 2.407518 5.000000 9.986000
226 1 2.407518 5.000000 14.246500
227 1 2.407518 5.000000 18.507500
228 1 2.407518 5.000000 22.768500
229 1 1.183800 5.000000 7.855500
230 1 1.183800 5.000000 12.116500
231 1 1.183800 5.000000 16.377000
232 1 1.183800 5.000000 20.638000
233 2 15.865667 5.000000 6.715500
234 2 13.423030 5.000000 6.715500
235 2 10.975766 5.000000 6.715500
236 2 8.528332 5.000000 6.715500
237 2 6.080897 5.000000 6.715500
238 2 3.633634 5.000000 6.715500
239 2 1.181402 5.000000 6.715500
240 2 15.274301 2.451000 25.823611
241 2 11.867469 5.965546 23.500000
242 2 16.200263 5.748183 26.128204
243 2 14.073945 7.493105 26.278762
244 2 15.076172 5.848871 25.726868
245 2 16.774116 6.872966 30.407202
246 2 3.740656 2.999348 24.315316
247 2 2.570622 3.541098 27.103070
248 2 11.209829 6.044135 27.422556
249 2 5.799808 9.056846 28.534349
250 2 6.805368 6.716208 33.176204
251 2 2.327495 9.619720 31.498403
252 2 4.464068 1.093388 32.177521
253 2 0.101562 5.161728 33.458563
254 2 13.952003 5.360733 33.393545
255 2 6.008969 6.519499 28.480203
256 2 14.274895 9.692438 34.410020
257 2 3.346363 9.712409 30.574928
258 2 5.111137 1.919436 32.776649
259 2 6.334150 2.263839 31.721938
260 2 2.445653 5.856716 34.086454
261 2 5.690108 8.869317 31.003337
262 2 1.603108 5.085322 35.439089
263 2 9.212163 9.007123 35.439089
264 2 16.452105 1.992141 34.190533
265 2 8.048965 5.426163 31.015921
266 2 5.865366 4.324239 30.466277
267 2 15.795470 4.750171 30.519977
268 1 0.296106 1.779768 25.879581
269 1 15.789708 3.018614 24.549255
270 1 10.417474 2.099431 26.446969
271 1 13.566481 3.361363 23.500000
272 1 13.501303 9.019507 25.121694
273 1 12.027404 9.365085 25.550639
274 1 5.659544 2.001899 27.894284
275 1 0.781996 5.588486 23.500000
276 1 5.806618 0.150520 23.500000
277 1 13.289927 1.793005 27.183061
278 1 7.647338 9.010443 23.500000
279 1 16.245659 6.329893 28.347176
280 1 4.700272 3.090394 30.541420
281 1 2.127077 5.265819 29.267763
282 1 4.902458 7.170628 31.381220
283 1 4.537835 7.190112 31.533526
284 1 6.650270 0.923102 30.347186
285 1 2.215963 4.511575 27.346206
286 1 16.355164 7.448558 30.905709
287 1 15.005295 0.979357 29.048165
288 1 9.824989 1.782247 26.022572
289 1 11.085758 1.596862 24.178418
290 1 11.326688 3.019671 32.956603
291 1 0.688071 7.948091 33.464251
292 1 8.289768 0.034011 35.237944
293 1 5.719073 2.103431 35.439089
294 1 4.722003 9.501059 32.130369
295 1 13.039012 3.547964 27.218424
296 1 9.542792 3.088879 32.380828
297 1 9.590782 4.083212 34.831300
298 1 6.727592 1.348859 26.615386
299 1 7.333166 5.538102 35.439089
300 1 17.050223 8.378879 27.395741
