300
Atoms. Timestep: 0
461132704             16.582444                     5               34.3065
461132704             16.582444                     5               36.7665
461132704             16.582444                     5               39.2265
461132704             16.582444                     5               41.6865
461132704             16.582444                     5               44.1465
461132704             16.582444                     5               46.6065
461132704             16.582444                     5               49.0665
461132704              1.592207                     5               33.0765
461132704              1.592207                     5               35.5365
461132704              1.592207                     5               37.9965
461132704              1.592207                     5               40.4565
461132704              1.592207                     5               42.9165
461132704              1.592207                     5               45.3765
461132704              1.592207                     5               47.8365
461132704                0.8785                     5               34.3065
461132704                0.8785                     5               36.7665
461132704                0.8785                     5               39.2265
461132704                0.8785                     5               41.6865
461132704                0.8785                     5               44.1465
461132704                0.8785                     5               46.6065
461132704                0.8785                     5               49.0665
461132704              3.019962                     5               33.0765
461132704              3.019962                     5               35.5365
461132704              3.019962                     5               37.9965
461132704              3.019962                     5               40.4565
461132704              3.019962                     5               42.9165
461132704              3.019962                     5               45.3765
461132704              3.019962                     5               47.8365
461132704              3.733669                     5               34.3065
461132704              3.733669                     5               36.7665
461132672              3.733669                     5               39.2265
461132672              3.733669                     5               41.6865
461132672              3.733669                     5               44.1465
461132672              3.733669                     5               46.6065
461132672              3.733669                     5               49.0665
461132672              5.875132                     5               33.0765
461132672              5.875132                     5               35.5365
461132672              5.875132                     5               37.9965
461132672              5.875132                     5               40.4565
461132672              5.875132                     5               42.9165
461132672              5.875132                     5               45.3765
461132672              5.875132                     5               47.8365
461132672              5.161425                     5               34.3065
461132672              5.161425                     5               36.7665
461132672              5.161425                     5               39.2265
461132672              5.161425                     5               41.6865
461132672              5.161425                     5               44.1465
461132672              5.161425                     5               46.6065
461132672              5.161425                     5               49.0665
461132672              7.302887                     5               33.0765
461132672              7.302887                     5               35.5365
461132672              7.302887                     5               37.9965
461132672              7.302887                     5               40.4565
461132672              7.302887                     5               42.9165
461132672              7.302887                     5               45.3765
461132672              7.302887                     5               47.8365
461132672              8.016594                     5               34.3065
461132672              8.016594                     5               36.7665
461132672              8.016594                     5               39.2265
461132672              8.016594                     5               41.6865
461132672              8.016594                     5               44.1465
461132672              8.016594                     5               46.6065
461132672              8.016594                     5               49.0665
461132672             10.158057                     5               33.0765
461132672             10.158057                     5               35.5365
461132672             10.158057                     5               37.9965
461132672             10.158057                     5               40.4565
461132672             10.158057                     5               42.9165
461132672             10.158057                     5               45.3765
461132672             10.158057                     5               47.8365
461132672               9.44435                     5               34.3065
461132672               9.44435                     5               36.7665
461132672               9.44435                     5               39.2265
461132672               9.44435                     5               41.6865
461132672               9.44435                     5               44.1465
461132672               9.44435                     5               46.6065
461132672               9.44435                     5               49.0665
461132672             11.585812                     5               33.0765
461132672             11.585812                     5               35.5365
461132672             11.585812                     5               37.9965
461132672             11.585812                     5               40.4565
461132672             11.585812                     5               42.9165
461132672             11.585812                     5               45.3765
461132672             11.585812                     5               47.8365
461132672             12.299519                     5               34.3065
461132672             12.299519                     5               36.7665
461132672             12.299519                     5               39.2265
461132672             12.299519                     5               41.6865
461132672             12.299519                     5               44.1465
461132672             12.299519                     5               46.6065
461132672             12.299519                     5               49.0665
461132672             14.440982                     5               33.0765
461132672             14.440982                     5               35.5365
461132672             14.440982                     5               37.9965
461132672             14.440982                     5               40.4565
461132672             14.440982                     5               42.9165
461132672             14.440982                     5               45.3765
461132672             14.440982                     5               47.8365
461132672             13.727275                     5               34.3065
461132672             13.727275                     5               36.7665
461132672             13.727275                     5               39.2265
461132672             13.727275                     5               41.6865
461132672             13.727275                     5               44.1465
461132672             13.727275                     5               46.6065
461132672             13.727275                     5               49.0665
461132672             15.868737                     5               33.0765
461132672             15.868737                     5               35.5365
461132672             15.868737                     5               37.9965
461132672             15.868737                     5               40.4565
461132672             15.868737                     5               42.9165
461132672             15.868737                     5               45.3765
461132672             15.868737                     5               47.8365
461132704             16.012301                     5     0.054000000000002
461132704              1.448472                     5     0.054000000000002
461132704              3.165753                     5    0.0549999999999997
461132704              5.731397                     5     0.054000000000002
461132704              7.448678                     5    0.0549999999999997
461132704             10.014322                     5     0.054000000000002
461132704             11.731603                     5    0.0549999999999997
461132704             14.297247                     5     0.054000000000002
461132672             17.091783                     5                8.5655
461132672             17.091783                     5               12.8265
461132672             17.091783                     5               17.0875
461132672             17.091783                     5                21.348
461132672             17.091783                     5                 9.986
461132672             17.091783                     5               14.2465
461132672             17.091783                     5               18.5075
461132672             17.091783                     5               22.7685
461132672             15.868066                     5                10.696
461132672             15.868066                     5                14.957
461132672             15.868066                     5               19.2175
461132672             15.868066                     5               23.4785
461132672             15.868066                     5                7.8555
461132672             15.868066                     5               12.1165
461132672             15.868066                     5                16.377
461132672             15.868066                     5                20.638
461132672             14.644348                     5                8.5655
461132672             14.644348                     5               12.8265
461132672             14.644348                     5               17.0875
461132672             14.644348                     5                21.348
461132672             13.420631                     5                10.696
461132672             13.420631                     5                14.957
461132672             13.420631                     5               19.2175
461132672             13.420631                     5               23.4785
461132672             14.644348                     5                 9.986
461132672             14.644348                     5               14.2465
461132672             14.644348                     5               18.5075
461132672             14.644348                     5               22.7685
461132672             13.420631                     5                7.8555
461132672             13.420631                     5               12.1165
461132672             13.420631                     5                16.377
461132672             13.420631                     5                20.638
461132672             12.197085                     5                8.5655
461132672             12.197085                     5               12.8265
461132672             12.197085                     5               17.0875
461132672             12.197085                     5                21.348
461132672             10.973368                     5                10.696
461132672             10.973368                     5                14.957
461132672             10.973368                     5               19.2175
461132672             10.973368                     5               23.4785
461132672             12.197085                     5                 9.986
461132672             12.197085                     5               14.2465
461132672             12.197085                     5               18.5075
461132672             12.197085                     5               22.7685
461132672             10.973368                     5                7.8555
461132672             10.973368                     5               12.1165
461132672             10.973368                     5                16.377
461132672             10.973368                     5                20.638
461132672               9.74965                     5                8.5655
461132672               9.74965                     5               12.8265
461132672               9.74965                     5               17.0875
461132672               9.74965                     5                21.348
461132672              8.525933                     5                10.696
461132672              8.525933                     5                14.957
461132672              8.525933                     5               19.2175
461132672              8.525933                     5               23.4785
461132672               9.74965                     5                 9.986
461132672               9.74965                     5               14.2465
461132672               9.74965                     5               18.5075
461132672               9.74965                     5               22.7685
461132672              8.525933                     5                7.8555
461132672              8.525933                     5               12.1165
461132672              8.525933                     5                16.377
461132672              8.525933                     5                20.638
461132672              7.302216                     5                8.5655
461132672              7.302216                     5               12.8265
461132672              7.302216                     5               17.0875
461132672              7.302216                     5                21.348
461132672              6.078498                     5                10.696
461132672              6.078498                     5                14.957
461132672              6.078498                     5               19.2175
461132672              6.078498                     5               23.4785
461132672              7.302216                     5                 9.986
461132672              7.302216                     5               14.2465
461132672              7.302216                     5               18.5075
461132672              7.302216                     5               22.7685
461132672              6.078498                     5                7.8555
461132672              6.078498                     5               12.1165
461132672              6.078498                     5                16.377
461132672              6.078498                     5                20.638
461132672              4.854781                     5                8.5655
461132672              4.854781                     5               12.8265
461132672              4.854781                     5               17.0875
461132672              4.854781                     5                21.348
461132672              3.631235                     5                10.696
461132672              3.631235                     5                14.957
461132672              3.631235                     5               19.2175
461132672              3.631235                     5               23.4785
461132672              4.854781                     5                 9.986
461132672              4.854781                     5               14.2465
461132672              4.854781                     5               18.5075
461132672              4.854781                     5               22.7685
461132672              3.631235                     5                7.8555
461132672              3.631235                     5               12.1165
461132672              3.631235                     5                16.377
461132672              3.631235                     5                20.638
461132672              2.407518                     5                8.5655
461132672              2.407518                     5               12.8265
461132672              2.407518                     5               17.0875
461132672              2.407518                     5                21.348
461132672                1.1838                     5                10.696
461132672                1.1838                     5                14.957
461132672                1.1838                     5               19.2175
461132672                1.1838                     5               23.4785
461132672              2.407518                     5                 9.986
461132672              2.407518                     5               14.2465
461132672              2.407518                     5               18.5075
461132672              2.407518                     5               22.7685
461132672                1.1838                     5                7.8555
461132672                1.1838                     5               12.1165
461132672                1.1838                     5                16.377
461132672                1.1838                     5                20.638
461132704             15.865667                     5                6.7155
461132704              13.42303                     5                6.7155
461132704             10.975766                     5                6.7155
461132704              8.528332                     5                6.7155
461132704              6.080897                     5                6.7155
461132704              3.633634                     5                6.7155
461132704              1.181402                     5                6.7155
461132704              5.820949              3.345608             27.432312
461132704             12.569508              0.231574                  23.5
461132704             14.829734              9.152272             27.110664
461132704             14.543377              9.834781             26.643975
461132704              5.866732               2.70722             26.265091
461132704             11.413907               2.98056             27.781065
461132704             13.284352              6.587361              26.40414
461132704              7.162331               6.26737                  23.5
461132704             12.729592               2.76884              23.60343
461132704              1.404509              3.499753             27.683648
461132704              4.802067              7.017508             28.442474
461132704              5.621846              0.285242             24.723876
461132704             15.568793              8.636408             27.366394
461132704             14.659043               0.64946             26.512166
461132704             14.534078              3.330505             27.552984
461132704              0.630472              3.565759             25.140149
461132704              8.028891              8.466626             26.730115
461132704             11.848928              9.920367             26.809298
461132704              2.027729              2.072884             31.519565
461132704              3.967391              1.951238             29.451184
461132704             14.041452              4.739226                    33
461132704              1.870607              4.688937                26.415
461132704             13.613158              7.687005             31.810003
461132704              7.656632              4.410588             32.104116
461132704             12.344005              3.205571             30.871312
461132704              9.304614              6.046026             29.414121
461132704               5.52507              5.182146             31.009684
461132704             12.801214              7.144624              27.04282
461132672              7.889042              2.353627             26.121589
461132672               0.37166              0.699263             24.990786
461132672              9.217184              1.734623                  23.5
461132672             12.270465              0.611049                  23.5
461132672                7.0453              3.790421             25.224972
461132672             12.223053              8.949713                  23.5
461132672             15.967692                8.3932             23.827301
461132672              8.570052              5.892881             24.736029
461132672             10.562729              2.772275                  23.5
461132672             14.073457              6.910621             26.132992
461132672              8.047538              1.453721             25.487345
461132672              6.200636               5.51214             27.493313
461132672               6.13923               7.05004             25.484963
461132672              4.777289              9.587555             30.055913
461132672              7.347496              7.291505             26.928574
461132672              5.505394              0.353184             31.023445
461132672              6.930127               1.12968             30.104797
461132672              2.659417              1.699876              25.86718
461132672              4.347445              2.276634             28.028859
461132672              0.421532              0.347262             23.804638
461132672              8.601093              7.048296             26.302815
461132672              3.437567              0.574282             29.349904
461132672              7.980949              3.118617             29.132301
461132672             13.796414              9.251544             29.629297
461132672              2.501123              7.880165             31.909112
461132672             11.954065              8.440608                    33
461132672              2.562984              0.336191                    33
461132672               7.54251              2.316122             27.884064
461132672              9.696773              1.514739             31.668174
461132672              7.246899              3.944321                    33
461132672              4.364239                7.5796             29.273383
461132672             14.255639              7.357595              30.12131
461132672              8.094195              8.671579             30.611382
300
Atoms. Timestep: 10
461132704      16.5899564589702                     5      34.3183995037531
461132704      16.5899564589702                     5      36.7783995037531
461132704      16.5899564589702                     5      39.2383995037531
461132704      16.5899564589702                     5      41.6983995037531
461132704      16.5899564589702                     5      44.1583995037531
461132704      16.5899564589702                     5      46.6183995037531
461132704      16.5899564589702                     5      49.0783995037531
461132704      1.59971945897019                     5      33.0883995037531
461132704      1.59971945897019                     5      35.5483995037531
461132704      1.59971945897019                     5      38.0083995037531
461132704      1.59971945897019                     5      40.4683995037531
461132704      1.59971945897019                     5      42.9283995037531
461132704      1.59971945897019                     5      45.3883995037531
461132704      1.59971945897019                     5      47.8483995037531
461132704     0.886012458970191                     5      34.3183995037531
461132704     0.886012458970191                     5      36.7783995037531
461132704     0.886012458970191                     5      39.2383995037531
461132704     0.886012458970191                     5      41.6983995037531
461132704     0.886012458970191                     5      44.1583995037531
461132704     0.886012458970191                     5      46.6183995037531
461132704     0.886012458970191                     5      49.0783995037531
461132704      3.02747445897019                     5      33.0883995037531
461132704      3.02747445897019                     5      35.5483995037531
461132704      3.02747445897019                     5      38.0083995037531
461132704      3.02747445897019                     5      40.4683995037531
461132704      3.02747445897019                     5      42.9283995037531
461132704      3.02747445897019                     5      45.3883995037531
461132704      3.02747445897019                     5      47.8483995037531
461132704      3.74118145897019                     5      34.3183995037531
461132704      3.74118145897019                     5      36.7783995037531
461132672      3.74118145897019                     5      39.2383995037531
461132672      3.74118145897019                     5      41.6983995037531
461132672      3.74118145897019                     5      44.1583995037531
461132672      3.74118145897019                     5      46.6183995037531
461132672      3.74118145897019                     5      49.0783995037531
461132672      5.88264445897019                     5      33.0883995037531
461132672      5.88264445897019                     5      35.5483995037531
461132672      5.88264445897019                     5      38.0083995037531
461132672      5.88264445897019                     5      40.4683995037531
461132672      5.88264445897019                     5      42.9283995037531
461132672      5.88264445897019                     5      45.3883995037531
461132672      5.88264445897019                     5      47.8483995037531
461132672      5.16893745897019                     5      34.3183995037531
461132672      5.16893745897019                     5      36.7783995037531
461132672      5.16893745897019                     5      39.2383995037531
461132672      5.16893745897019                     5      41.6983995037531
461132672      5.16893745897019                     5      44.1583995037531
461132672      5.16893745897019                     5      46.6183995037531
461132672      5.16893745897019                     5      49.0783995037531
461132672      7.31039945897019                     5      33.0883995037531
461132672      7.31039945897019                     5      35.5483995037531
461132672      7.31039945897019                     5      38.0083995037531
461132672      7.31039945897019                     5      40.4683995037531
461132672      7.31039945897019                     5      42.9283995037531
461132672      7.31039945897019                     5      45.3883995037531
461132672      7.31039945897019                     5      47.8483995037531
461132672      8.02410645897019                     5      34.3183995037531
461132672      8.02410645897019                     5      36.7783995037531
461132672      8.02410645897019                     5      39.2383995037531
461132672      8.02410645897019                     5      41.6983995037531
461132672      8.02410645897019                     5      44.1583995037531
461132672      8.02410645897019                     5      46.6183995037531
461132672      8.02410645897019                     5      49.0783995037531
461132672      10.1655694589702                     5      33.0883995037531
461132672      10.1655694589702                     5      35.5483995037531
461132672      10.1655694589702                     5      38.0083995037531
461132672      10.1655694589702                     5      40.4683995037531
461132672      10.1655694589702                     5      42.9283995037531
461132672      10.1655694589702                     5      45.3883995037531
461132672      10.1655694589702                     5      47.8483995037531
461132672      9.45186245897019                     5      34.3183995037531
461132672      9.45186245897019                     5      36.7783995037531
461132672      9.45186245897019                     5      39.2383995037531
461132672      9.45186245897019                     5      41.6983995037531
461132672      9.45186245897019                     5      44.1583995037531
461132672      9.45186245897019                     5      46.6183995037531
461132672      9.45186245897019                     5      49.0783995037531
461132672      11.5933244589702                     5      33.0883995037531
461132672      11.5933244589702                     5      35.5483995037531
461132672      11.5933244589702                     5      38.0083995037531
461132672      11.5933244589702                     5      40.4683995037531
461132672      11.5933244589702                     5      42.9283995037531
461132672      11.5933244589702                     5      45.3883995037531
461132672      11.5933244589702                     5      47.8483995037531
461132672      12.3070314589702                     5      34.3183995037531
461132672      12.3070314589702                     5      36.7783995037531
461132672      12.3070314589702                     5      39.2383995037531
461132672      12.3070314589702                     5      41.6983995037531
461132672      12.3070314589702                     5      44.1583995037531
461132672      12.3070314589702                     5      46.6183995037531
461132672      12.3070314589702                     5      49.0783995037531
461132672      14.4484944589702                     5      33.0883995037531
461132672      14.4484944589702                     5      35.5483995037531
461132672      14.4484944589702                     5      38.0083995037531