search structure

300 atoms
2  atom types

0   17.131700 xlo xhi
0   10.000000 ylo yhi
0   50.000000 zlo zhi

Atoms

1 2 16.582444 5.000000 34.306500
2 2 16.582444 5.000000 36.766500
3 2 16.582444 5.000000 39.226500
4 2 16.582444 5.000000 41.686500
5 2 16.582444 5.000000 44.146500
6 2 16.582444 5.000000 46.606500
7 2 16.582444 5.000000 49.066500
8 2 1.592207 5.000000 33.076500
9 2 1.592207 5.000000 35.536500
10 2 1.592207 5.000000 37.996500
11 2 1.592207 5.000000 40.456500
12 2 1.592207 5.000000 42.916500
13 2 1.592207 5.000000 45.376500
14 2 1.592207 5.000000 47.836500
15 2 0.878500 5.000000 34.306500
16 2 0.878500 5.000000 36.766500
17 2 0.878500 5.000000 39.226500
18 2 0.878500 5.000000 41.686500
19 2 0.878500 5.000000 44.146500
20 2 0.878500 5.000000 46.606500
21 2 0.878500 5.000000 49.066500
22 2 3.019962 5.000000 33.076500
23 2 3.019962 5.000000 35.536500
24 2 3.019962 5.000000 37.996500
25 2 3.019962 5.000000 40.456500
26 2 3.019962 5.000000 42.916500
27 2 3.019962 5.000000 45.376500
28 2 3.019962 5.000000 47.836500
29 2 3.733669 5.000000 34.306500
30 2 3.733669 5.000000 36.766500
31 1 3.733669 5.000000 39.226500
32 1 3.733669 5.000000 41.686500
33 1 3.733669 5.000000 44.146500
34 1 3.733669 5.000000 46.606500
35 1 3.733669 5.000000 49.066500
36 1 5.875132 5.000000 33.076500
37 1 5.875132 5.000000 35.536500
38 1 5.875132 5.000000 37.996500
39 1 5.875132 5.000000 40.456500
40 1 5.875132 5.000000 42.916500
41 1 5.875132 5.000000 45.376500
42 1 5.875132 5.000000 47.836500
43 1 5.161425 5.000000 34.306500
44 1 5.161425 5.000000 36.766500
45 1 5.161425 5.000000 39.226500
46 1 5.161425 5.000000 41.686500
47 1 5.161425 5.000000 44.146500
48 1 5.161425 5.000000 46.606500
49 1 5.161425 5.000000 49.066500
50 1 7.302887 5.000000 33.076500
51 1 7.302887 5.000000 35.536500
52 1 7.302887 5.000000 37.996500
53 1 7.302887 5.000000 40.456500
54 1 7.302887 5.000000 42.916500
55 1 7.302887 5.000000 45.376500
56 1 7.302887 5.000000 47.836500
57 1 8.016594 5.000000 34.306500
58 1 8.016594 5.000000 36.766500
59 1 8.016594 5.000000 39.226500
60 1 8.016594 5.000000 41.686500
61 1 8.016594 5.000000 44.146500
62 1 8.016594 5.000000 46.606500
63 1 8.016594 5.000000 49.066500
64 1 10.158057 5.000000 33.076500
65 1 10.158057 5.000000 35.536500
66 1 10.158057 5.000000 37.996500
67 1 10.158057 5.000000 40.456500
68 1 10.158057 5.000000 42.916500
69 1 10.158057 5.000000 45.376500
70 1 10.158057 5.000000 47.836500
71 1 9.444350 5.000000 34.306500
72 1 9.444350 5.000000 36.766500
73 1 9.444350 5.000000 39.226500
74 1 9.444350 5.000000 41.686500
75 1 9.444350 5.000000 44.146500
76 1 9.444350 5.000000 46.606500
77 1 9.444350 5.000000 49.066500
78 1 11.585812 5.000000 33.076500
79 1 11.585812 5.000000 35.536500
80 1 11.585812 5.000000 37.996500
81 1 11.585812 5.000000 40.456500
82 1 11.585812 5.000000 42.916500
83 1 11.585812 5.000000 45.376500
84 1 11.585812 5.000000 47.836500
85 1 12.299519 5.000000 34.306500
86 1 12.299519 5.000000 36.766500
87 1 12.299519 5.000000 39.226500
88 1 12.299519 5.000000 41.686500
89 1 12.299519 5.000000 44.146500
90 1 12.299519 5.000000 46.606500
91 1 12.299519 5.000000 49.066500
92 1 14.440982 5.000000 33.076500
93 1 14.440982 5.000000 35.536500
94 1 14.440982 5.000000 37.996500
95 1 14.440982 5.000000 40.456500
96 1 14.440982 5.000000 42.916500
97 1 14.440982 5.000000 45.376500
98 1 14.440982 5.000000 47.836500
99 1 13.727275 5.000000 34.306500
100 1 13.727275 5.000000 36.766500
101 1 13.727275 5.000000 39.226500
102 1 13.727275 5.000000 41.686500
103 1 13.727275 5.000000 44.146500
104 1 13.727275 5.000000 46.606500
105 1 13.727275 5.000000 49.066500
106 1 15.868737 5.000000 33.076500
107 1 15.868737 5.000000 35.536500
108 1 15.868737 5.000000 37.996500
109 1 15.868737 5.000000 40.456500
110 1 15.868737 5.000000 42.916500
111 1 15.868737 5.000000 45.376500
112 1 15.868737 5.000000 47.836500
113 2 16.012301 5.000000 50.054000
114 2 1.448472 5.000000 50.054000
115 2 3.165753 5.000000 50.055000
116 2 5.731397 5.000000 50.054000
117 2 7.448678 5.000000 50.055000
118 2 10.014322 5.000000 50.054000
119 2 11.731603 5.000000 50.055000
120 2 14.297247 5.000000 50.054000
121 1 -0.039917 5.000000 8.565500
122 1 -0.039917 5.000000 12.826500
123 1 -0.039917 5.000000 17.087500
124 1 -0.039917 5.000000 21.348000
125 1 -0.039917 5.000000 9.986000
126 1 -0.039917 5.000000 14.246500
127 1 -0.039917 5.000000 18.507500
128 1 -0.039917 5.000000 22.768500
129 1 15.868066 5.000000 10.696000
130 1 15.868066 5.000000 14.957000
131 1 15.868066 5.000000 19.217500
132 1 15.868066 5.000000 23.478500
133 1 15.868066 5.000000 7.855500
134 1 15.868066 5.000000 12.116500
135 1 15.868066 5.000000 16.377000
136 1 15.868066 5.000000 20.638000
137 1 14.644348 5.000000 8.565500
138 1 14.644348 5.000000 12.826500
139 1 14.644348 5.000000 17.087500
140 1 14.644348 5.000000 21.348000
141 1 13.420631 5.000000 10.696000
142 1 13.420631 5.000000 14.957000
143 1 13.420631 5.000000 19.217500
144 1 13.420631 5.000000 23.478500
145 1 14.644348 5.000000 9.986000
146 1 14.644348 5.000000 14.246500
147 1 14.644348 5.000000 18.507500
148 1 14.644348 5.000000 22.768500
149 1 13.420631 5.000000 7.855500
150 1 13.420631 5.000000 12.116500
151 1 13.420631 5.000000 16.377000
152 1 13.420631 5.000000 20.638000
153 1 12.197085 5.000000 8.565500
154 1 12.197085 5.000000 12.826500
155 1 12.197085 5.000000 17.087500
156 1 12.197085 5.000000 21.348000
157 1 10.973368 5.000000 10.696000
158 1 10.973368 5.000000 14.957000
159 1 10.973368 5.000000 19.217500
160 1 10.973368 5.000000 23.478500
161 1 12.197085 5.000000 9.986000
162 1 12.197085 5.000000 14.246500
163 1 12.197085 5.000000 18.507500
164 1 12.197085 5.000000 22.768500
165 1 10.973368 5.000000 7.855500
166 1 10.973368 5.000000 12.116500
167 1 10.973368 5.000000 16.377000
168 1 10.973368 5.000000 20.638000
169 1 9.749650 5.000000 8.565500
170 1 9.749650 5.000000 12.826500
171 1 9.749650 5.000000 17.087500
172 1 9.749650 5.000000 21.348000
173 1 8.525933 5.000000 10.696000
174 1 8.525933 5.000000 14.957000
175 1 8.525933 5.000000 19.217500
176 1 8.525933 5.000000 23.478500
177 1 9.749650 5.000000 9.986000
178 1 9.749650 5.000000 14.246500
179 1 9.749650 5.000000 18.507500
180 1 9.749650 5.000000 22.768500
181 1 8.525933 5.000000 7.855500
182 1 8.525933 5.000000 12.116500
183 1 8.525933 5.000000 16.377000
184 1 8.525933 5.000000 20.638000
185 1 7.302216 5.000000 8.565500
186 1 7.302216 5.000000 12.826500
187 1 7.302216 5.000000 17.087500
188 1 7.302216 5.000000 21.348000
189 1 6.078498 5.000000 10.696000
190 1 6.078498 5.000000 14.957000
191 1 6.078498 5.000000 19.217500
192 1 6.078498 5.000000 23.478500
193 1 7.302216 5.000000 9.986000
194 1 7.302216 5.000000 14.246500
195 1 7.302216 5.000000 18.507500
196 1 7.302216 5.000000 22.768500
197 1 6.078498 5.000000 7.855500
198 1 6.078498 5.000000 12.116500
199 1 6.078498 5.000000 16.377000
200 1 6.078498 5.000000 20.638000
201 1 4.854781 5.000000 8.565500
202 1 4.854781 5.000000 12.826500
203 1 4.854781 5.000000 17.087500
204 1 4.854781 5.000000 21.348000
205 1 3.631235 5.000000 10.696000
206 1 3.631235 5.000000 14.957000
207 1 3.631235 5.000000 19.217500
208 1 3.631235 5.000000 23.478500
209 1 4.854781 5.000000 9.986000
210 1 4.854781 5.000000 14.246500
211 1 4.854781 5.000000 18.507500
212 1 4.854781 5.000000 22.768500
213 1 3.631235 5.000000 7.855500
214 1 3.631235 5.000000 12.116500
215 1 3.631235 5.000000 16.377000
216 1 3.631235 5.000000 20.638000
217 1 2.407518 5.000000 8.565500
218 1 2.407518 5.000000 12.826500
219 1 2.407518 5.000000 17.087500
220 1 2.407518 5.000000 21.348000
221 1 1.183800 5.000000 10.696000
222 1 1.183800 5.000000 14.957000
223 1 1.183800 5.000000 19.217500
224 1 1.183800 5.000000 23.478500
225 1 2.407518 5.000000 9.986000
226 1 2.407518 5.000000 14.246500
227 1 2.407518 5.000000 18.507500
228 1 2.407518 5.000000 22.768500
229 1 1.183800 5.000000 7.855500
230 1 1.183800 5.000000 12.116500
231 1 1.183800 5.000000 16.377000
232 1 1.183800 5.000000 20.638000
233 2 15.865667 5.000000 6.715500
234 2 13.423030 5.000000 6.715500
235 2 10.975766 5.000000 6.715500
236 2 8.528332 5.000000 6.715500
237 2 6.080897 5.000000 6.715500
238 2 3.633634 5.000000 6.715500
239 2 1.181402 5.000000 6.715500
240 2 5.820949 3.345608 27.432312
241 2 12.569508 0.231574 23.500000
242 2 14.829734 9.152272 27.110664
243 2 14.543377 9.834781 26.643975
244 2 5.866732 2.707220 26.265091
245 2 11.413907 2.980560 27.781065
246 2 13.284352 6.587361 26.404140
247 2 7.162331 6.267370 23.500000
248 2 12.729592 2.768840 23.603430
249 2 1.404509 3.499753 27.683648
250 2 4.802067 7.017508 28.442474
251 2 5.621846 0.285242 24.723876
252 2 15.568793 8.636408 27.366394
253 2 14.659043 0.649460 26.512166
254 2 14.534078 3.330505 27.552984
255 2 0.630472 3.565759 25.140149
256 2 8.028891 8.466626 26.730115
257 2 11.848928 9.920367 26.809298
258 2 2.027729 2.072884 31.519565
259 2 3.967391 1.951238 29.451184
260 2 14.041452 4.739226 33.000000
261 2 1.870607 4.688937 26.415000
262 2 13.613158 7.687005 31.810003
263 2 7.656632 4.410588 32.104116
264 2 12.344005 3.205571 30.871312
265 2 9.304614 6.046026 29.414121
266 2 5.525070 5.182146 31.009684
267 2 12.801214 7.144624 27.042820
268 1 7.889042 2.353627 26.121589
269 1 0.371660 0.699263 24.990786
270 1 9.217184 1.734623 23.500000
271 1 12.270465 0.611049 23.500000
272 1 7.045300 3.790421 25.224972
273 1 12.223053 8.949713 23.500000
274 1 15.967692 8.393200 23.827301
275 1 8.570052 5.892881 24.736029
276 1 10.562729 2.772275 23.500000
277 1 14.073457 6.910621 26.132992
278 1 8.047538 1.453721 25.487345
279 1 6.200636 5.512140 27.493313
280 1 6.139230 7.050040 25.484963
281 1 4.777289 9.587555 30.055913
282 1 7.347496 7.291505 26.928574
283 1 5.505394 0.353184 31.023445
284 1 6.930127 1.129680 30.104797
285 1 2.659417 1.699876 25.867180
286 1 4.347445 2.276634 28.028859
287 1 0.421532 0.347262 23.804638
288 1 8.601093 7.048296 26.302815
289 1 3.437567 0.574282 29.349904
290 1 7.980949 3.118617 29.132301
291 1 13.796414 9.251544 29.629297
292 1 2.501123 7.880165 31.909112
293 1 11.954065 8.440608 33.000000
294 1 2.562984 0.336191 33.000000
295 1 7.542510 2.316122 27.884064
296 1 9.696773 1.514739 31.668174
297 1 7.246899 3.944321 33.000000
298 1 4.364239 7.579600 29.273383
299 1 14.255639 7.357595 30.121310
300 1 8.094195 8.671579 30.611382
