300
Atoms. Timestep: 0
85533600               0.75135                     5             35.015811
85533600               0.75135                     5             37.475811
85533600               0.75135                     5             39.935811
85533600               0.75135                     5             42.395811
85533600               0.75135                     5             44.855811
85533600               0.75135                     5             47.315811
85533600               0.75135                     5             49.775811
85533600              2.892813                     5             33.785811
85533600              2.892813                     5             36.245811
85533600              2.892813                     5             38.705811
85533600              2.892813                     5             41.165811
85533600              2.892813                     5             43.625811
85533600              2.892813                     5             46.085811
85533600              2.892813                     5             48.545811
85533600              2.179106                     5             35.015811
85533600              2.179106                     5             37.475811
85533600              2.179106                     5             39.935811
85533600              2.179106                     5             42.395811
85533600              2.179106                     5             44.855811
85533600              2.179106                     5             47.315811
85533600              2.179106                     5             49.775811
85533600              4.320568                     5             33.785811
85533600              4.320568                     5             36.245811
85533600              4.320568                     5             38.705811
85533600              4.320568                     5             41.165811
85533600              4.320568                     5             43.625811
85533600              4.320568                     5             46.085811
85533600              4.320568                     5             48.545811
85533600              5.034275                     5             35.015811
85533600              5.034275                     5             37.475811
85533568              5.034275                     5             39.935811
85533568              5.034275                     5             42.395811
85533568              5.034275                     5             44.855811
85533568              5.034275                     5             47.315811
85533568              5.034275                     5             49.775811
85533568              7.175738                     5             33.785811
85533568              7.175738                     5             36.245811
85533568              7.175738                     5             38.705811
85533568              7.175738                     5             41.165811
85533568              7.175738                     5             43.625811
85533568              7.175738                     5             46.085811
85533568              7.175738                     5             48.545811
85533568              6.462031                     5             35.015811
85533568              6.462031                     5             37.475811
85533568              6.462031                     5             39.935811
85533568              6.462031                     5             42.395811
85533568              6.462031                     5             44.855811
85533568              6.462031                     5             47.315811
85533568              6.462031                     5             49.775811
85533568              8.603493                     5             33.785811
85533568              8.603493                     5             36.245811
85533568              8.603493                     5             38.705811
85533568              8.603493                     5             41.165811
85533568              8.603493                     5             43.625811
85533568              8.603493                     5             46.085811
85533568              8.603493                     5             48.545811
85533568                9.3172                     5             35.015811
85533568                9.3172                     5             37.475811
85533568                9.3172                     5             39.935811
85533568                9.3172                     5             42.395811
85533568                9.3172                     5             44.855811
85533568                9.3172                     5             47.315811
85533568                9.3172                     5             49.775811
85533568             11.458663                     5             33.785811
85533568             11.458663                     5             36.245811
85533568             11.458663                     5             38.705811
85533568             11.458663                     5             41.165811
85533568             11.458663                     5             43.625811
85533568             11.458663                     5             46.085811
85533568             11.458663                     5             48.545811
85533568             10.744956                     5             35.015811
85533568             10.744956                     5             37.475811
85533568             10.744956                     5             39.935811
85533568             10.744956                     5             42.395811
85533568             10.744956                     5             44.855811
85533568             10.744956                     5             47.315811
85533568             10.744956                     5             49.775811
85533568             12.886418                     5             33.785811
85533568             12.886418                     5             36.245811
85533568             12.886418                     5             38.705811
85533568             12.886418                     5             41.165811
85533568             12.886418                     5             43.625811
85533568             12.886418                     5             46.085811
85533568             12.886418                     5             48.545811
85533568             13.600125                     5             35.015811
85533568             13.600125                     5             37.475811
85533568             13.600125                     5             39.935811
85533568             13.600125                     5             42.395811
85533568             13.600125                     5             44.855811
85533568             13.600125                     5             47.315811
85533568             13.600125                     5             49.775811
85533568             15.741588                     5             33.785811
85533568             15.741588                     5             36.245811
85533568             15.741588                     5             38.705811
85533568             15.741588                     5             41.165811
85533568             15.741588                     5             43.625811
85533568             15.741588                     5             46.085811
85533568             15.741588                     5             48.545811
85533568             15.027881                     5             35.015811
85533568             15.027881                     5             37.475811
85533568             15.027881                     5             39.935811
85533568             15.027881                     5             42.395811
85533568             15.027881                     5             44.855811
85533568             15.027881                     5             47.315811
85533568             15.027881                     5             49.775811
85533568              0.037643                     5             33.785811
85533568              0.037643                     5             36.245811
85533568              0.037643                     5             38.705811
85533568              0.037643                     5             41.165811
85533568              0.037643                     5             43.625811
85533568              0.037643                     5             46.085811
85533568              0.037643                     5             48.545811
85533600              0.181207                     5     0.763311000000002
85533600              2.749078                     5     0.763311000000002
85533600              4.466359                     5     0.764310999999999
85533600              7.032003                     5     0.763311000000002
85533600              8.749284                     5     0.764310999999999
85533600             11.314928                     5     0.763311000000002
85533600             13.032209                     5     0.764310999999999
85533600             15.597853                     5     0.763311000000002
85533568             17.091783                     5                8.5655
85533568             17.091783                     5               12.8265
85533568             17.091783                     5               17.0875
85533568             17.091783                     5                21.348
85533568             17.091783                     5                 9.986
85533568             17.091783                     5               14.2465
85533568             17.091783                     5               18.5075
85533568             17.091783                     5               22.7685
85533568             15.868066                     5                10.696
85533568             15.868066                     5                14.957
85533568             15.868066                     5               19.2175
85533568             15.868066                     5               23.4785
85533568             15.868066                     5                7.8555
85533568             15.868066                     5               12.1165
85533568             15.868066                     5                16.377
85533568             15.868066                     5                20.638
85533568             14.644348                     5                8.5655
85533568             14.644348                     5               12.8265
85533568             14.644348                     5               17.0875
85533568             14.644348                     5                21.348
85533568             13.420631                     5                10.696
85533568             13.420631                     5                14.957
85533568             13.420631                     5               19.2175
85533568             13.420631                     5               23.4785
85533568             14.644348                     5                 9.986
85533568             14.644348                     5               14.2465
85533568             14.644348                     5               18.5075
85533568             14.644348                     5               22.7685
85533568             13.420631                     5                7.8555
85533568             13.420631                     5               12.1165
85533568             13.420631                     5                16.377
85533568             13.420631                     5                20.638
85533568             12.197085                     5                8.5655
85533568             12.197085                     5               12.8265
85533568             12.197085                     5               17.0875
85533568             12.197085                     5                21.348
85533568             10.973368                     5                10.696
85533568             10.973368                     5                14.957
85533568             10.973368                     5               19.2175
85533568             10.973368                     5               23.4785
85533568             12.197085                     5                 9.986
85533568             12.197085                     5               14.2465
85533568             12.197085                     5               18.5075
85533568             12.197085                     5               22.7685
85533568             10.973368                     5                7.8555
85533568             10.973368                     5               12.1165
85533568             10.973368                     5                16.377
85533568             10.973368                     5                20.638
85533568               9.74965                     5                8.5655
85533568               9.74965                     5               12.8265
85533568               9.74965                     5               17.0875
85533568               9.74965                     5                21.348
85533568              8.525933                     5                10.696
85533568              8.525933                     5                14.957
85533568              8.525933                     5               19.2175
85533568              8.525933                     5               23.4785
85533568               9.74965                     5                 9.986
85533568               9.74965                     5               14.2465
85533568               9.74965                     5               18.5075
85533568               9.74965                     5               22.7685
85533568              8.525933                     5                7.8555
85533568              8.525933                     5               12.1165
85533568              8.525933                     5                16.377
85533568              8.525933                     5                20.638
85533568              7.302216                     5                8.5655
85533568              7.302216                     5               12.8265
85533568              7.302216                     5               17.0875
85533568              7.302216                     5                21.348
85533568              6.078498                     5                10.696
85533568              6.078498                     5                14.957
85533568              6.078498                     5               19.2175
85533568              6.078498                     5               23.4785
85533568              7.302216                     5                 9.986
85533568              7.302216                     5               14.2465
85533568              7.302216                     5               18.5075
85533568              7.302216                     5               22.7685
85533568              6.078498                     5                7.8555
85533568              6.078498                     5               12.1165
85533568              6.078498                     5                16.377
85533568              6.078498                     5                20.638
85533568              4.854781                     5                8.5655
85533568              4.854781                     5               12.8265
85533568              4.854781                     5               17.0875
85533568              4.854781                     5                21.348
85533568              3.631235                     5                10.696
85533568              3.631235                     5                14.957
85533568              3.631235                     5               19.2175
85533568              3.631235                     5               23.4785
85533568              4.854781                     5                 9.986
85533568              4.854781                     5               14.2465
85533568              4.854781                     5               18.5075
85533568              4.854781                     5               22.7685
85533568              3.631235                     5                7.8555
85533568              3.631235                     5               12.1165
85533568              3.631235                     5                16.377
85533568              3.631235                     5                20.638
85533568              2.407518                     5                8.5655
85533568              2.407518                     5               12.8265
85533568              2.407518                     5               17.0875
85533568              2.407518                     5                21.348
85533568                1.1838                     5                10.696
85533568                1.1838                     5                14.957
85533568                1.1838                     5               19.2175
85533568                1.1838                     5               23.4785
85533568              2.407518                     5                 9.986
85533568              2.407518                     5               14.2465
85533568              2.407518                     5               18.5075
85533568              2.407518                     5               22.7685
85533568                1.1838                     5                7.8555
85533568                1.1838                     5               12.1165
85533568                1.1838                     5                16.377
85533568                1.1838                     5                20.638
85533600             15.865667                     5                6.7155
85533600              13.42303                     5                6.7155
85533600             10.975766                     5                6.7155
85533600              8.528332                     5                6.7155
85533600              6.080897                     5                6.7155
85533600              3.633634                     5                6.7155
85533600              1.181402                     5                6.7155
85533600             14.430695              3.778551             26.219414
85533600              2.796074              3.344178                  23.5
85533600              4.064601              0.606163             27.771038
85533600               0.06363              7.531141             28.496133
85533600              5.949166              1.558936             26.742406
85533600              10.09254              2.681323             28.155067
85533600               14.8478              4.695016             24.383969
85533600              9.239544              4.818586             24.622299
85533600             13.101046              2.868525             27.051674
85533600             12.364683              4.959885             29.187717
85533600              9.696248              6.006153             30.319839
85533600               6.68401              7.859936             26.517752
85533600              5.815637              1.545364             27.819154
85533600              7.955736              9.981827             31.243013
85533600              5.567719              0.047614             26.652236
85533600              4.521086              7.911949             26.320029
85533600              3.402817              5.396238             29.245417
85533600             15.785103               7.57164             25.880282
85533600              4.324274              2.925322             32.388265
85533600              9.453782              2.700456             31.504335
85533600             13.937161              5.398328             31.922637
85533600              5.090306              6.666124             29.182384
85533600              4.499527              0.811011             30.267568
85533600              1.517893              7.495478             31.524526
85533600              3.769403              8.943047             31.766824
85533600              5.067393              1.413682             27.197092
85533600             15.003405              0.635944             28.884646
85533600              8.800546              2.790308               26.0224
85533568             14.881002              6.740468             26.989707
85533568              7.160023               6.56791             24.272984
85533568             10.878269              8.173783                  23.5
85533568             10.600592               2.10476                  23.5
85533568             14.177042              4.474571                  23.5
85533568              9.102182              8.680686                  23.5
85533568              3.703787              8.492728             25.364006
85533568             15.059468              8.081723                  23.5
85533568              8.687848              7.909368             23.678838
85533568              8.803354              0.468201             25.051352
85533568              0.041228              0.380681              23.68738
85533568              1.634855              7.777321             30.997375
85533568              5.132377              6.988797             29.889774
85533568             11.784598              2.612495             24.992394
85533568              2.689104              1.707276             29.837478
85533568              3.456161              6.232412             26.963614
85533568              6.420828              1.480272             27.874195
85533568              4.562599              7.652878             28.788651
85533568             13.617611              7.585433              30.84379
85533568              8.675601               2.12597             26.556062
85533568             15.425487              1.969136                  23.5
85533568              6.730441               1.68744             28.656828
85533568              6.710043              0.148263             29.048093
85533568             11.184073              4.271564             33.236254
85533568              9.388952              2.900479             33.709311
85533568             10.187373                9.1049              32.16122
85533568             16.619587              9.859036             33.709311
85533568             10.787784              4.540079             25.657834
85533568              12.45033              5.544862             33.186247
85533568              7.298907               4.78614             31.453619
85533568              4.725045              2.293568             31.401029
85533568              2.437296              4.029384             32.268114
85533568             10.564977              8.716842             28.580338
300
Atoms. Timestep: 10
85533600     0.755668022567786                     5      35.0255516559942
85533600     0.755668022567786                     5      37.4855516559942
85533600     0.755668022567786                     5      39.9455516559942
85533600     0.755668022567786                     5      42.4055516559942
85533600     0.755668022567786                     5      44.8655516559942
85533600     0.755668022567786                     5      47.3255516559942
85533600     0.755668022567786                     5      49.7855516559942
85533600      2.89713102256779                     5      33.7955516559942
85533600      2.89713102256779                     5      36.2555516559942
85533600      2.89713102256779                     5      38.7155516559942
85533600      2.89713102256779                     5      41.1755516559942
85533600      2.89713102256779                     5      43.6355516559942
85533600      2.89713102256779                     5      46.0955516559942
85533600      2.89713102256779                     5      48.5555516559942
85533600      2.18342402256779                     5      35.0255516559942
85533600      2.18342402256779                     5      37.4855516559942
85533600      2.18342402256779                     5      39.9455516559942
85533600      2.18342402256779                     5      42.4055516559942
85533600      2.18342402256779                     5      44.8655516559942
85533600      2.18342402256779                     5      47.3255516559942
85533600      2.18342402256779                     5      49.7855516559942
85533600      4.32488602256779                     5      33.7955516559942
85533600      4.32488602256779                     5      36.2555516559942
85533600      4.32488602256779                     5      38.7155516559942
85533600      4.32488602256779                     5      41.1755516559942
85533600      4.32488602256779                     5      43.6355516559942
85533600      4.32488602256779                     5      46.0955516559942
85533600      4.32488602256779                     5      48.5555516559942
85533600      5.03859302256779                     5      35.0255516559942
85533600      5.03859302256779                     5      37.4855516559942
85533568      5.03859302256779                     5      39.9455516559942
85533568      5.03859302256779                     5      42.4055516559942
85533568      5.03859302256779                     5      44.8655516559942
85533568      5.03859302256779                     5      47.3255516559942
85533568      5.03859302256779                     5      49.7855516559942
85533568      7.18005602256779                     5      33.7955516559942
85533568      7.18005602256779                     5      36.2555516559942
85533568      7.18005602256779                     5      38.7155516559942
85533568      7.18005602256779                     5      41.1755516559942
85533568      7.18005602256779                     5      43.6355516559942
85533568      7.18005602256779                     5      46.0955516559942
85533568      7.18005602256779                     5      48.5555516559942
85533568      6.46634902256779                     5      35.0255516559942
85533568      6.46634902256779                     5      37.4855516559942
85533568      6.46634902256779                     5      39.9455516559942
85533568      6.46634902256779                     5      42.4055516559942
85533568      6.46634902256779                     5      44.8655516559942
85533568      6.46634902256779                     5      47.3255516559942
85533568      6.46634902256779                     5      49.7855516559942
85533568      8.60781102256779                     5      33.7955516559942
85533568      8.60781102256779                     5      36.2555516559942
85533568      8.60781102256779                     5      38.7155516559942
85533568      8.60781102256779                     5      41.1755516559942
85533568      8.60781102256779                     5      43.6355516559942
85533568      8.60781102256779                     5      46.0955516559942
85533568      8.60781102256779                     5      48.5555516559942
85533568      9.32151802256779                     5      35.0255516559942
85533568      9.32151802256779                     5      37.4855516559942
85533568      9.32151802256779                     5      39.9455516559942
85533568      9.32151802256779                     5      42.4055516559942
85533568      9.32151802256779                     5      44.8655516559942
85533568      9.32151802256779                     5      47.3255516559942
85533568      9.32151802256779                     5      49.7855516559942
85533568      11.4629810225678                     5      33.7955516559942
85533568      11.4629810225678                     5      36.2555516559942
85533568      11.4629810225678                     5      38.7155516559942
85533568      11.4629810225678                     5      41.1755516559942
85533568      11.4629810225678                     5      43.6355516559942
85533568      11.4629810225678                     5      46.0955516559942
85533568      11.4629810225678                     5      48.5555516559942
85533568      10.7492740225678                     5      35.0255516559942
85533568      10.7492740225678                     5      37.4855516559942
85533568      10.7492740225678                     5      39.9455516559942
85533568      10.7492740225678                     5      42.4055516559942
85533568      10.7492740225678                     5      44.8655516559942
85533568      10.7492740225678                     5      47.3255516559942
85533568      10.7492740225678                     5      49.7855516559942
85533568      12.8907360225678                     5      33.7955516559942
85533568      12.8907360225678                     5      36.2555516559942
85533568      12.8907360225678                     5      38.7155516559942
85533568      12.8907360225678                     5      41.1755516559942
85533568      12.8907360225678                     5      43.6355516559942
85533568      12.8907360225678                     5      46.0955516559942
85533568      12.8907360225678                     5      48.5555516559942
85533568      13.6044430225678                     5      35.0255516559942
85533568      13.6044430225678                     5      37.4855516559942
85533568      13.6044430225678                     5      39.9455516559942
85533568      13.6044430225678                     5      42.4055516559942
85533568      13.6044430225678                     5      44.8655516559942
85533568      13.6044430225678                     5      47.3255516559942
85533568      13.6044430225678                     5      49.7855516559942
85533568      15.7459060225678                     5      33.7955516559942
85533568      15.7459060225678                     5      36.2555516559942
85533568      15.7459060225678                     5      38.7155516559942
85533568      15.7459060225678                     5      41.1755516559942
85533568      15.7459060225678                     5      43.6355516559942
85533568      15.7459060225678                     5      46.0955516559942
85533568      15.7459060225678                     5      48.5555516559942
85533568      15.0321990225678                     5      35.0255516559942