LAMMPS (30 Aug 2012)
units		metal
boundary	p p p
atom_style	atomic
read_data	struct.lammps
  orthogonal box = (0 0 0) to (17.1317 10 50)
  1 by 1 by 1 MPI processor grid
  300 atoms

pair_style      airebo 3.0
pair_coeff      * * CH.airebo C H

mass	1	12.0
mass	2	1.0

group		fixPosH id <> 1 120
120 atoms in group fixPosH
group		fixPosL id <> 121 239
119 atoms in group fixPosL
group		optPos  id <> 240 1000
61 atoms in group optPos
fix             0       fixPosH setforce NULL 0.0 NULL
fix             1       fixPosH aveforce 0.0 0.0 0.0
fix		2	fixPosL setforce 0.0 0.0 0.0
fix 		3	optPos	setforce NULL 0.0 NULL

neighbor        0.2 bin
neigh_modify	every 1 delay 0 check yes

timestep	0.002
thermo 		1
thermo_style    custom step  pe etotal lx ly lz 

dump		1 all xyz 10000000 dump.atom
dump_modify	1 format "%d  %20.15g  %20.15g  %20.15g" 
#fix 		8 all box/relax iso 0.0 
min_style	cg
minimize	1.0e-12 1.0e-12 10 10
Memory usage per processor = 3.2674 Mbytes
Step PotEng TotEng Lx Ly Lz 
       0   -818.38733   -818.38733      17.1317           10           50 
       1   -916.07272   -916.07272      17.1317           10           50 
       2   -1005.9418   -1005.9418      17.1317           10           50 
       3    -1059.078    -1059.078      17.1317           10           50 
       4   -1090.8646   -1090.8646      17.1317           10           50 
       5   -1113.5443   -1113.5443      17.1317           10           50 
       6   -1134.1652   -1134.1652      17.1317           10           50 
       7   -1146.8178   -1146.8178      17.1317           10           50 
       8   -1154.9365   -1154.9365      17.1317           10           50 
       9    -1159.756    -1159.756      17.1317           10           50 
      10   -1165.5216   -1165.5216      17.1317           10           50 
Loop time of 0.472264 on 1 procs for 10 steps with 300 atoms

Minimization stats:
  Stopping criterion = max force evaluations
  Energy initial, next-to-last, final = 
        -818.387328104     -1159.75597005     -1165.52164341
  Force two-norm initial, final = 1020.29 26.7324
  Force max component initial, final = 624.067 12.0003
  Final line search alpha, max atom move = 0.00499675 0.0599623
  Iterations, force evaluations = 10 10

Pair  time (%) = 0.14099 (29.854)
Neigh time (%) = 0.221457 (46.8927)
Comm  time (%) = 0.00145054 (0.307146)
Outpt time (%) = 0.000127792 (0.0270595)
Other time (%) = 0.108239 (22.9191)

Nlocal:    300 ave 300 max 300 min
Histogram: 1 0 0 0 0 0 0 0 0 0
Nghost:    2415 ave 2415 max 2415 min
Histogram: 1 0 0 0 0 0 0 0 0 0
Neighs:    0 ave 0 max 0 min
Histogram: 1 0 0 0 0 0 0 0 0 0
FullNghs:  46104 ave 46104 max 46104 min
Histogram: 1 0 0 0 0 0 0 0 0 0

Total # of neighbors = 46104
Ave neighs/atom = 153.68
Neighbor list builds = 10
Dangerous builds = 10
min_modify line quadratic

clear
