search structure

300 atoms
2  atom types

0   17.131700 xlo xhi
0   10.000000 ylo yhi
0   50.000000 zlo zhi

Atoms

1 2 0.751350 5.000000 35.015811
2 2 0.751350 5.000000 37.475811
3 2 0.751350 5.000000 39.935811
4 2 0.751350 5.000000 42.395811
5 2 0.751350 5.000000 44.855811
6 2 0.751350 5.000000 47.315811
7 2 0.751350 5.000000 49.775811
8 2 2.892813 5.000000 33.785811
9 2 2.892813 5.000000 36.245811
10 2 2.892813 5.000000 38.705811
11 2 2.892813 5.000000 41.165811
12 2 2.892813 5.000000 43.625811
13 2 2.892813 5.000000 46.085811
14 2 2.892813 5.000000 48.545811
15 2 2.179106 5.000000 35.015811
16 2 2.179106 5.000000 37.475811
17 2 2.179106 5.000000 39.935811
18 2 2.179106 5.000000 42.395811
19 2 2.179106 5.000000 44.855811
20 2 2.179106 5.000000 47.315811
21 2 2.179106 5.000000 49.775811
22 2 4.320568 5.000000 33.785811
23 2 4.320568 5.000000 36.245811
24 2 4.320568 5.000000 38.705811
25 2 4.320568 5.000000 41.165811
26 2 4.320568 5.000000 43.625811
27 2 4.320568 5.000000 46.085811
28 2 4.320568 5.000000 48.545811
29 2 5.034275 5.000000 35.015811
30 2 5.034275 5.000000 37.475811
31 1 5.034275 5.000000 39.935811
32 1 5.034275 5.000000 42.395811
33 1 5.034275 5.000000 44.855811
34 1 5.034275 5.000000 47.315811
35 1 5.034275 5.000000 49.775811
36 1 7.175738 5.000000 33.785811
37 1 7.175738 5.000000 36.245811
38 1 7.175738 5.000000 38.705811
39 1 7.175738 5.000000 41.165811
40 1 7.175738 5.000000 43.625811
41 1 7.175738 5.000000 46.085811
42 1 7.175738 5.000000 48.545811
43 1 6.462031 5.000000 35.015811
44 1 6.462031 5.000000 37.475811
45 1 6.462031 5.000000 39.935811
46 1 6.462031 5.000000 42.395811
47 1 6.462031 5.000000 44.855811
48 1 6.462031 5.000000 47.315811
49 1 6.462031 5.000000 49.775811
50 1 8.603493 5.000000 33.785811
51 1 8.603493 5.000000 36.245811
52 1 8.603493 5.000000 38.705811
53 1 8.603493 5.000000 41.165811
54 1 8.603493 5.000000 43.625811
55 1 8.603493 5.000000 46.085811
56 1 8.603493 5.000000 48.545811
57 1 9.317200 5.000000 35.015811
58 1 9.317200 5.000000 37.475811
59 1 9.317200 5.000000 39.935811
60 1 9.317200 5.000000 42.395811
61 1 9.317200 5.000000 44.855811
62 1 9.317200 5.000000 47.315811
63 1 9.317200 5.000000 49.775811
64 1 11.458663 5.000000 33.785811
65 1 11.458663 5.000000 36.245811
66 1 11.458663 5.000000 38.705811
67 1 11.458663 5.000000 41.165811
68 1 11.458663 5.000000 43.625811
69 1 11.458663 5.000000 46.085811
70 1 11.458663 5.000000 48.545811
71 1 10.744956 5.000000 35.015811
72 1 10.744956 5.000000 37.475811
73 1 10.744956 5.000000 39.935811
74 1 10.744956 5.000000 42.395811
75 1 10.744956 5.000000 44.855811
76 1 10.744956 5.000000 47.315811
77 1 10.744956 5.000000 49.775811
78 1 12.886418 5.000000 33.785811
79 1 12.886418 5.000000 36.245811
80 1 12.886418 5.000000 38.705811
81 1 12.886418 5.000000 41.165811
82 1 12.886418 5.000000 43.625811
83 1 12.886418 5.000000 46.085811
84 1 12.886418 5.000000 48.545811
85 1 13.600125 5.000000 35.015811
86 1 13.600125 5.000000 37.475811
87 1 13.600125 5.000000 39.935811
88 1 13.600125 5.000000 42.395811
89 1 13.600125 5.000000 44.855811
90 1 13.600125 5.000000 47.315811
91 1 13.600125 5.000000 49.775811
92 1 15.741588 5.000000 33.785811
93 1 15.741588 5.000000 36.245811
94 1 15.741588 5.000000 38.705811
95 1 15.741588 5.000000 41.165811
96 1 15.741588 5.000000 43.625811
97 1 15.741588 5.000000 46.085811
98 1 15.741588 5.000000 48.545811
99 1 15.027881 5.000000 35.015811
100 1 15.027881 5.000000 37.475811
101 1 15.027881 5.000000 39.935811
102 1 15.027881 5.000000 42.395811
103 1 15.027881 5.000000 44.855811
104 1 15.027881 5.000000 47.315811
105 1 15.027881 5.000000 49.775811
106 1 0.037643 5.000000 33.785811
107 1 0.037643 5.000000 36.245811
108 1 0.037643 5.000000 38.705811
109 1 0.037643 5.000000 41.165811
110 1 0.037643 5.000000 43.625811
111 1 0.037643 5.000000 46.085811
112 1 0.037643 5.000000 48.545811
113 2 0.181207 5.000000 50.763311
114 2 2.749078 5.000000 50.763311
115 2 4.466359 5.000000 50.764311
116 2 7.032003 5.000000 50.763311
117 2 8.749284 5.000000 50.764311
118 2 11.314928 5.000000 50.763311
119 2 13.032209 5.000000 50.764311
120 2 15.597853 5.000000 50.763311
121 1 -0.039917 5.000000 8.565500
122 1 -0.039917 5.000000 12.826500
123 1 -0.039917 5.000000 17.087500
124 1 -0.039917 5.000000 21.348000
125 1 -0.039917 5.000000 9.986000
126 1 -0.039917 5.000000 14.246500
127 1 -0.039917 5.000000 18.507500
128 1 -0.039917 5.000000 22.768500
129 1 15.868066 5.000000 10.696000
130 1 15.868066 5.000000 14.957000
131 1 15.868066 5.000000 19.217500
132 1 15.868066 5.000000 23.478500
133 1 15.868066 5.000000 7.855500
134 1 15.868066 5.000000 12.116500
135 1 15.868066 5.000000 16.377000
136 1 15.868066 5.000000 20.638000
137 1 14.644348 5.000000 8.565500
138 1 14.644348 5.000000 12.826500
139 1 14.644348 5.000000 17.087500
140 1 14.644348 5.000000 21.348000
141 1 13.420631 5.000000 10.696000
142 1 13.420631 5.000000 14.957000
143 1 13.420631 5.000000 19.217500
144 1 13.420631 5.000000 23.478500
145 1 14.644348 5.000000 9.986000
146 1 14.644348 5.000000 14.246500
147 1 14.644348 5.000000 18.507500
148 1 14.644348 5.000000 22.768500
149 1 13.420631 5.000000 7.855500
150 1 13.420631 5.000000 12.116500
151 1 13.420631 5.000000 16.377000
152 1 13.420631 5.000000 20.638000
153 1 12.197085 5.000000 8.565500
154 1 12.197085 5.000000 12.826500
155 1 12.197085 5.000000 17.087500
156 1 12.197085 5.000000 21.348000
157 1 10.973368 5.000000 10.696000
158 1 10.973368 5.000000 14.957000
159 1 10.973368 5.000000 19.217500
160 1 10.973368 5.000000 23.478500
161 1 12.197085 5.000000 9.986000
162 1 12.197085 5.000000 14.246500
163 1 12.197085 5.000000 18.507500
164 1 12.197085 5.000000 22.768500
165 1 10.973368 5.000000 7.855500
166 1 10.973368 5.000000 12.116500
167 1 10.973368 5.000000 16.377000
168 1 10.973368 5.000000 20.638000
169 1 9.749650 5.000000 8.565500
170 1 9.749650 5.000000 12.826500
171 1 9.749650 5.000000 17.087500
172 1 9.749650 5.000000 21.348000
173 1 8.525933 5.000000 10.696000
174 1 8.525933 5.000000 14.957000
175 1 8.525933 5.000000 19.217500
176 1 8.525933 5.000000 23.478500
177 1 9.749650 5.000000 9.986000
178 1 9.749650 5.000000 14.246500
179 1 9.749650 5.000000 18.507500
180 1 9.749650 5.000000 22.768500
181 1 8.525933 5.000000 7.855500
182 1 8.525933 5.000000 12.116500
183 1 8.525933 5.000000 16.377000
184 1 8.525933 5.000000 20.638000
185 1 7.302216 5.000000 8.565500
186 1 7.302216 5.000000 12.826500
187 1 7.302216 5.000000 17.087500
188 1 7.302216 5.000000 21.348000
189 1 6.078498 5.000000 10.696000
190 1 6.078498 5.000000 14.957000
191 1 6.078498 5.000000 19.217500
192 1 6.078498 5.000000 23.478500
193 1 7.302216 5.000000 9.986000
194 1 7.302216 5.000000 14.246500
195 1 7.302216 5.000000 18.507500
196 1 7.302216 5.000000 22.768500
197 1 6.078498 5.000000 7.855500
198 1 6.078498 5.000000 12.116500
199 1 6.078498 5.000000 16.377000
200 1 6.078498 5.000000 20.638000
201 1 4.854781 5.000000 8.565500
202 1 4.854781 5.000000 12.826500
203 1 4.854781 5.000000 17.087500
204 1 4.854781 5.000000 21.348000
205 1 3.631235 5.000000 10.696000
206 1 3.631235 5.000000 14.957000
207 1 3.631235 5.000000 19.217500
208 1 3.631235 5.000000 23.478500
209 1 4.854781 5.000000 9.986000
210 1 4.854781 5.000000 14.246500
211 1 4.854781 5.000000 18.507500
212 1 4.854781 5.000000 22.768500
213 1 3.631235 5.000000 7.855500
214 1 3.631235 5.000000 12.116500
215 1 3.631235 5.000000 16.377000
216 1 3.631235 5.000000 20.638000
217 1 2.407518 5.000000 8.565500
218 1 2.407518 5.000000 12.826500
219 1 2.407518 5.000000 17.087500
220 1 2.407518 5.000000 21.348000
221 1 1.183800 5.000000 10.696000
222 1 1.183800 5.000000 14.957000
223 1 1.183800 5.000000 19.217500
224 1 1.183800 5.000000 23.478500
225 1 2.407518 5.000000 9.986000
226 1 2.407518 5.000000 14.246500
227 1 2.407518 5.000000 18.507500
228 1 2.407518 5.000000 22.768500
229 1 1.183800 5.000000 7.855500
230 1 1.183800 5.000000 12.116500
231 1 1.183800 5.000000 16.377000
232 1 1.183800 5.000000 20.638000
233 2 15.865667 5.000000 6.715500
234 2 13.423030 5.000000 6.715500
235 2 10.975766 5.000000 6.715500
236 2 8.528332 5.000000 6.715500
237 2 6.080897 5.000000 6.715500
238 2 3.633634 5.000000 6.715500
239 2 1.181402 5.000000 6.715500
240 2 14.430695 3.778551 26.219414
241 2 2.796074 3.344178 23.500000
242 2 4.064601 0.606163 27.771038
243 2 0.063630 7.531141 28.496133
244 2 5.949166 1.558936 26.742406
245 2 10.092540 2.681323 28.155067
246 2 14.847800 4.695016 24.383969
247 2 9.239544 4.818586 24.622299
248 2 13.101046 2.868525 27.051674
249 2 12.364683 4.959885 29.187717
250 2 9.696248 6.006153 30.319839
251 2 6.684010 7.859936 26.517752
252 2 5.815637 1.545364 27.819154
253 2 7.955736 9.981827 31.243013
254 2 5.567719 0.047614 26.652236
255 2 4.521086 7.911949 26.320029
256 2 3.402817 5.396238 29.245417
257 2 15.785103 7.571640 25.880282
258 2 4.324274 2.925322 32.388265
259 2 9.453782 2.700456 31.504335
260 2 13.937161 5.398328 31.922637
261 2 5.090306 6.666124 29.182384
262 2 4.499527 0.811011 30.267568
263 2 1.517893 7.495478 31.524526
264 2 3.769403 8.943047 31.766824
265 2 5.067393 1.413682 27.197092
266 2 15.003405 0.635944 28.884646
267 2 8.800546 2.790308 26.022400
268 1 14.881002 6.740468 26.989707
269 1 7.160023 6.567910 24.272984
270 1 10.878269 8.173783 23.500000
271 1 10.600592 2.104760 23.500000
272 1 14.177042 4.474571 23.500000
273 1 9.102182 8.680686 23.500000
274 1 3.703787 8.492728 25.364006
275 1 15.059468 8.081723 23.500000
276 1 8.687848 7.909368 23.678838
277 1 8.803354 0.468201 25.051352
278 1 0.041228 0.380681 23.687380
279 1 1.634855 7.777321 30.997375
280 1 5.132377 6.988797 29.889774
281 1 11.784598 2.612495 24.992394
282 1 2.689104 1.707276 29.837478
283 1 3.456161 6.232412 26.963614
284 1 6.420828 1.480272 27.874195
285 1 4.562599 7.652878 28.788651
286 1 13.617611 7.585433 30.843790
287 1 8.675601 2.125970 26.556062
288 1 15.425487 1.969136 23.500000
289 1 6.730441 1.687440 28.656828
290 1 6.710043 0.148263 29.048093
291 1 11.184073 4.271564 33.236254
292 1 9.388952 2.900479 33.709311
293 1 10.187373 9.104900 32.161220
294 1 16.619587 9.859036 33.709311
295 1 10.787784 4.540079 25.657834
296 1 12.450330 5.544862 33.186247
297 1 7.298907 4.786140 31.453619
298 1 4.725045 2.293568 31.401029
299 1 2.437296 4.029384 32.268114
300 1 10.564977 8.716842 28.580338
