300
Atoms. Timestep: 0
361583520              4.340506                     5               34.3065
361583520              4.340506                     5               36.7665
361583520              4.340506                     5               39.2265
361583520              4.340506                     5               41.6865
361583520              4.340506                     5               44.1465
361583520              4.340506                     5               46.6065
361583520              4.340506                     5               49.0665
361583520              6.481969                     5               33.0765
361583520              6.481969                     5               35.5365
361583520              6.481969                     5               37.9965
361583520              6.481969                     5               40.4565
361583520              6.481969                     5               42.9165
361583520              6.481969                     5               45.3765
361583520              6.481969                     5               47.8365
361583520              5.768262                     5               34.3065
361583520              5.768262                     5               36.7665
361583520              5.768262                     5               39.2265
361583520              5.768262                     5               41.6865
361583520              5.768262                     5               44.1465
361583520              5.768262                     5               46.6065
361583520              5.768262                     5               49.0665
361583520              7.909725                     5               33.0765
361583520              7.909725                     5               35.5365
361583520              7.909725                     5               37.9965
361583520              7.909725                     5               40.4565
361583520              7.909725                     5               42.9165
361583520              7.909725                     5               45.3765
361583520              7.909725                     5               47.8365
361583520              8.623431                     5               34.3065
361583520              8.623431                     5               36.7665
361583488              8.623431                     5               39.2265
361583488              8.623431                     5               41.6865
361583488              8.623431                     5               44.1465
361583488              8.623431                     5               46.6065
361583488              8.623431                     5               49.0665
361583488             10.764894                     5               33.0765
361583488             10.764894                     5               35.5365
361583488             10.764894                     5               37.9965
361583488             10.764894                     5               40.4565
361583488             10.764894                     5               42.9165
361583488             10.764894                     5               45.3765
361583488             10.764894                     5               47.8365
361583488             10.051187                     5               34.3065
361583488             10.051187                     5               36.7665
361583488             10.051187                     5               39.2265
361583488             10.051187                     5               41.6865
361583488             10.051187                     5               44.1465
361583488             10.051187                     5               46.6065
361583488             10.051187                     5               49.0665
361583488              12.19265                     5               33.0765
361583488              12.19265                     5               35.5365
361583488              12.19265                     5               37.9965
361583488              12.19265                     5               40.4565
361583488              12.19265                     5               42.9165
361583488              12.19265                     5               45.3765
361583488              12.19265                     5               47.8365
361583488             12.906356                     5               34.3065
361583488             12.906356                     5               36.7665
361583488             12.906356                     5               39.2265
361583488             12.906356                     5               41.6865
361583488             12.906356                     5               44.1465
361583488             12.906356                     5               46.6065
361583488             12.906356                     5               49.0665
361583488             15.047819                     5               33.0765
361583488             15.047819                     5               35.5365
361583488             15.047819                     5               37.9965
361583488             15.047819                     5               40.4565
361583488             15.047819                     5               42.9165
361583488             15.047819                     5               45.3765
361583488             15.047819                     5               47.8365
361583488             14.334112                     5               34.3065
361583488             14.334112                     5               36.7665
361583488             14.334112                     5               39.2265
361583488             14.334112                     5               41.6865
361583488             14.334112                     5               44.1465
361583488             14.334112                     5               46.6065
361583488             14.334112                     5               49.0665
361583488             16.475575                     5               33.0765
361583488             16.475575                     5               35.5365
361583488             16.475575                     5               37.9965
361583488             16.475575                     5               40.4565
361583488             16.475575                     5               42.9165
361583488             16.475575                     5               45.3765
361583488             16.475575                     5               47.8365
361583488              0.057581                     5               34.3065
361583488              0.057581                     5               36.7665
361583488              0.057581                     5               39.2265
361583488              0.057581                     5               41.6865
361583488              0.057581                     5               44.1465
361583488              0.057581                     5               46.6065
361583488              0.057581                     5               49.0665
361583488              2.199044                     5               33.0765
361583488              2.199044                     5               35.5365
361583488              2.199044                     5               37.9965
361583488              2.199044                     5               40.4565
361583488              2.199044                     5               42.9165
361583488              2.199044                     5               45.3765
361583488              2.199044                     5               47.8365
361583488              1.485337                     5               34.3065
361583488              1.485337                     5               36.7665
361583488              1.485337                     5               39.2265
361583488              1.485337                     5               41.6865
361583488              1.485337                     5               44.1465
361583488              1.485337                     5               46.6065
361583488              1.485337                     5               49.0665
361583488                3.6268                     5               33.0765
361583488                3.6268                     5               35.5365
361583488                3.6268                     5               37.9965
361583488                3.6268                     5               40.4565
361583488                3.6268                     5               42.9165
361583488                3.6268                     5               45.3765
361583488                3.6268                     5               47.8365
361583520              3.770363                     5     0.054000000000002
361583520              6.338234                     5     0.054000000000002
361583520              8.055515                     5    0.0549999999999997
361583520             10.621159                     5     0.054000000000002
361583520              12.33844                     5    0.0549999999999997
361583520             14.904084                     5     0.054000000000002
361583520             16.621365                     5    0.0549999999999997
361583520              2.055309                     5     0.054000000000002
361583488             17.091783                     5                8.5655
361583488             17.091783                     5               12.8265
361583488             17.091783                     5               17.0875
361583488             17.091783                     5                21.348
361583488             17.091783                     5                 9.986
361583488             17.091783                     5               14.2465
361583488             17.091783                     5               18.5075
361583488             17.091783                     5               22.7685
361583488             15.868066                     5                10.696
361583488             15.868066                     5                14.957
361583488             15.868066                     5               19.2175
361583488             15.868066                     5               23.4785
361583488             15.868066                     5                7.8555
361583488             15.868066                     5               12.1165
361583488             15.868066                     5                16.377
361583488             15.868066                     5                20.638
361583488             14.644348                     5                8.5655
361583488             14.644348                     5               12.8265
361583488             14.644348                     5               17.0875
361583488             14.644348                     5                21.348
361583488             13.420631                     5                10.696
361583488             13.420631                     5                14.957
361583488             13.420631                     5               19.2175
361583488             13.420631                     5               23.4785
361583488             14.644348                     5                 9.986
361583488             14.644348                     5               14.2465
361583488             14.644348                     5               18.5075
361583488             14.644348                     5               22.7685
361583488             13.420631                     5                7.8555
361583488             13.420631                     5               12.1165
361583488             13.420631                     5                16.377
361583488             13.420631                     5                20.638
361583488             12.197085                     5                8.5655
361583488             12.197085                     5               12.8265
361583488             12.197085                     5               17.0875
361583488             12.197085                     5                21.348
361583488             10.973368                     5                10.696
361583488             10.973368                     5                14.957
361583488             10.973368                     5               19.2175
361583488             10.973368                     5               23.4785
361583488             12.197085                     5                 9.986
361583488             12.197085                     5               14.2465
361583488             12.197085                     5               18.5075
361583488             12.197085                     5               22.7685
361583488             10.973368                     5                7.8555
361583488             10.973368                     5               12.1165
361583488             10.973368                     5                16.377
361583488             10.973368                     5                20.638
361583488               9.74965                     5                8.5655
361583488               9.74965                     5               12.8265
361583488               9.74965                     5               17.0875
361583488               9.74965                     5                21.348
361583488              8.525933                     5                10.696
361583488              8.525933                     5                14.957
361583488              8.525933                     5               19.2175
361583488              8.525933                     5               23.4785
361583488               9.74965                     5                 9.986
361583488               9.74965                     5               14.2465
361583488               9.74965                     5               18.5075
361583488               9.74965                     5               22.7685
361583488              8.525933                     5                7.8555
361583488              8.525933                     5               12.1165
361583488              8.525933                     5                16.377
361583488              8.525933                     5                20.638
361583488              7.302216                     5                8.5655
361583488              7.302216                     5               12.8265
361583488              7.302216                     5               17.0875
361583488              7.302216                     5                21.348
361583488              6.078498                     5                10.696
361583488              6.078498                     5                14.957
361583488              6.078498                     5               19.2175
361583488              6.078498                     5               23.4785
361583488              7.302216                     5                 9.986
361583488              7.302216                     5               14.2465
361583488              7.302216                     5               18.5075
361583488              7.302216                     5               22.7685
361583488              6.078498                     5                7.8555
361583488              6.078498                     5               12.1165
361583488              6.078498                     5                16.377
361583488              6.078498                     5                20.638
361583488              4.854781                     5                8.5655
361583488              4.854781                     5               12.8265
361583488              4.854781                     5               17.0875
361583488              4.854781                     5                21.348
361583488              3.631235                     5                10.696
361583488              3.631235                     5                14.957
361583488              3.631235                     5               19.2175
361583488              3.631235                     5               23.4785
361583488              4.854781                     5                 9.986
361583488              4.854781                     5               14.2465
361583488              4.854781                     5               18.5075
361583488              4.854781                     5               22.7685
361583488              3.631235                     5                7.8555
361583488              3.631235                     5               12.1165
361583488              3.631235                     5                16.377
361583488              3.631235                     5                20.638
361583488              2.407518                     5                8.5655
361583488              2.407518                     5               12.8265
361583488              2.407518                     5               17.0875
361583488              2.407518                     5                21.348
361583488                1.1838                     5                10.696
361583488                1.1838                     5                14.957
361583488                1.1838                     5               19.2175
361583488                1.1838                     5               23.4785
361583488              2.407518                     5                 9.986
361583488              2.407518                     5               14.2465
361583488              2.407518                     5               18.5075
361583488              2.407518                     5               22.7685
361583488                1.1838                     5                7.8555
361583488                1.1838                     5               12.1165
361583488                1.1838                     5                16.377
361583488                1.1838                     5                20.638
361583520             15.865667                     5                6.7155
361583520              13.42303                     5                6.7155
361583520             10.975766                     5                6.7155
361583520              8.528332                     5                6.7155
361583520              6.080897                     5                6.7155
361583520              3.633634                     5                6.7155
361583520              1.181402                     5                6.7155
361583520              7.169766              0.408476             23.944277
361583520             11.530742              0.809292             24.204074
361583520              6.551067              6.665095             24.918565
361583520             13.898896              7.819573             26.299641
361583520             15.814273              7.296525                  23.5
361583520             12.958489              8.070268              24.94909
361583520             14.979324              2.892019                  23.5
361583520             11.870808              6.509861             24.341705
361583520             15.540372              7.264708             24.652024
361583520             16.694655              9.757863             25.024722
361583520              7.046599              1.938412             25.610178
361583520             11.894929              2.088418             24.654327
361583520              8.276539               1.66062             26.378868
361583520              9.849158              0.626931             27.833374
361583520              13.06015              6.037165             24.883665
361583520              2.730254               5.01174              23.74949
361583520              2.239217              7.796872             27.301828
361583520              13.46378              7.569173             27.123739
361583520               3.84649              3.097477              29.01813
361583520              0.596867              8.014084             30.451574
361583520              9.958492              8.788699                  23.5
361583520              8.733708              0.205838             31.888273
361583520              7.295815              0.533555             31.588376
361583520             11.622584              3.472486             32.696434
361583520              11.61502              5.162834                    33
361583520              8.363288              6.514673              29.61376
361583520             16.453664              5.578267              28.73919
361583520             10.577349              9.722624             25.479016
361583488              4.956957              2.495877             25.543102
361583488              8.605057              7.701948             25.194364
361583488              3.582855              7.561409             25.259184
361583488             15.595684               9.26395              25.05705
361583488             10.050562              1.908896             25.173179
361583488             12.678709              4.064118             25.620963
361583488             13.026152              1.134263             27.550138
361583488              0.852225              1.223013                  23.5
361583488             16.993387              4.146463              24.01545
361583488              6.083012              5.723396                  23.5
361583488              4.379424              0.882171             23.840527
361583488              2.151442              1.189444             27.630721
361583488              0.614021              0.857987             25.056087
361583488              1.133879              6.787084             24.371489
361583488              2.749164               1.00395                    33
361583488              3.511437              3.750694             24.344001
361583488              7.208715              8.068721             31.018426
361583488             10.637088              0.844744             29.236377
361583488              5.162242              7.751489             24.979591
361583488             11.754937              0.909632             27.838712
361583488              6.622945               1.61032             24.357325
361583488              5.917831              0.740589             29.480389
361583488             14.649844              2.149316             32.869473
361583488              4.221835              0.913375              30.54367
361583488              1.223794              0.590253                    33
361583488              4.259332              9.317049             31.783256
361583488             15.796809              8.965128             31.302559
361583488              14.97315               9.96221             32.760774
361583488             11.395372              3.030513             30.277245
361583488              5.261007              0.758613             30.239028
361583488              4.643007              1.300395                    33
361583488             13.438739              0.818926                    33
361583488              0.546576              0.581497             32.665463
300
Atoms. Timestep: 10
361583520      4.34266774792655                     5      34.3085892729023
361583520      4.34266774792655                     5      36.7685892729023
361583520      4.34266774792655                     5      39.2285892729023
361583520      4.34266774792655                     5      41.6885892729023
361583520      4.34266774792655                     5      44.1485892729023
361583520      4.34266774792655                     5      46.6085892729023
361583520      4.34266774792655                     5      49.0685892729023
361583520      6.48413074792655                     5      33.0785892729023
361583520      6.48413074792655                     5      35.5385892729023
361583520      6.48413074792655                     5      37.9985892729023
361583520      6.48413074792655                     5      40.4585892729023
361583520      6.48413074792655                     5      42.9185892729023
361583520      6.48413074792655                     5      45.3785892729023
361583520      6.48413074792655                     5      47.8385892729023
361583520      5.77042374792654                     5      34.3085892729023
361583520      5.77042374792654                     5      36.7685892729023
361583520      5.77042374792654                     5      39.2285892729023
361583520      5.77042374792654                     5      41.6885892729023
361583520      5.77042374792654                     5      44.1485892729023
361583520      5.77042374792654                     5      46.6085892729023
361583520      5.77042374792654                     5      49.0685892729023
361583520      7.91188674792654                     5      33.0785892729023
361583520      7.91188674792654                     5      35.5385892729023
361583520      7.91188674792654                     5      37.9985892729023
361583520      7.91188674792654                     5      40.4585892729023
361583520      7.91188674792654                     5      42.9185892729023
361583520      7.91188674792654                     5      45.3785892729023
361583520      7.91188674792654                     5      47.8385892729023
361583520      8.62559274792654                     5      34.3085892729023
361583520      8.62559274792654                     5      36.7685892729023
361583488      8.62559274792654                     5      39.2285892729023
361583488      8.62559274792654                     5      41.6885892729023
361583488      8.62559274792654                     5      44.1485892729023
361583488      8.62559274792654                     5      46.6085892729023
361583488      8.62559274792654                     5      49.0685892729023
361583488      10.7670557479265                     5      33.0785892729023
361583488      10.7670557479265                     5      35.5385892729023
361583488      10.7670557479265                     5      37.9985892729023
361583488      10.7670557479265                     5      40.4585892729023
361583488      10.7670557479265                     5      42.9185892729023
361583488      10.7670557479265                     5      45.3785892729023
361583488      10.7670557479265                     5      47.8385892729023
361583488      10.0533487479265                     5      34.3085892729023
361583488      10.0533487479265                     5      36.7685892729023
361583488      10.0533487479265                     5      39.2285892729023
361583488      10.0533487479265                     5      41.6885892729023
361583488      10.0533487479265                     5      44.1485892729023
361583488      10.0533487479265                     5      46.6085892729023
361583488      10.0533487479265                     5      49.0685892729023
361583488      12.1948117479265                     5      33.0785892729023
361583488      12.1948117479265                     5      35.5385892729023
361583488      12.1948117479265                     5      37.9985892729023
361583488      12.1948117479265                     5      40.4585892729023
361583488      12.1948117479265                     5      42.9185892729023
361583488      12.1948117479265                     5      45.3785892729023
361583488      12.1948117479265                     5      47.8385892729023
361583488      12.9085177479265                     5      34.3085892729023
361583488      12.9085177479265                     5      36.7685892729023
361583488      12.9085177479265                     5      39.2285892729023
361583488      12.9085177479265                     5      41.6885892729023
361583488      12.9085177479265                     5      44.1485892729023
361583488      12.9085177479265                     5      46.6085892729023
361583488      12.9085177479265                     5      49.0685892729023
361583488      15.0499807479265                     5      33.0785892729023
361583488      15.0499807479265                     5      35.5385892729023
361583488      15.0499807479265                     5      37.9985892729023
361583488      15.0499807479265                     5      40.4585892729023
361583488      15.0499807479265                     5      42.9185892729023
361583488      15.0499807479265                     5      45.3785892729023
361583488      15.0499807479265                     5      47.8385892729023
361583488      14.3362737479265                     5      34.3085892729023
361583488      14.3362737479265                     5      36.7685892729023
361583488      14.3362737479265                     5      39.2285892729023
361583488      14.3362737479265                     5      41.6885892729023
361583488      14.3362737479265                     5      44.1485892729023
361583488      14.3362737479265                     5      46.6085892729023
361583488      14.3362737479265                     5      49.0685892729023
361583488      16.4777367479265                     5      33.0785892729023
361583488      16.4777367479265                     5      35.5385892729023
361583488      16.4777367479265                     5      37.9985892729023
361583488      16.4777367479265                     5      40.4585892729023
361583488      16.4777367479265                     5      42.9185892729023
361583488      16.4777367479265                     5      45.3785892729023
361583488      16.4777367479265                     5      47.8385892729023
361583488    0.0597427479265445                     5      34.3085892729023
361583488    0.0597427479265445                     5      36.7685892729023
361583488    0.0597427479265445                     5      39.2285892729023
361583488    0.0597427479265445                     5      41.6885892729023
361583488    0.0597427479265445                     5      44.1485892729023
361583488    0.0597427479265445                     5      46.6085892729023
361583488    0.0597427479265445                     5      49.0685892729023
361583488      2.20120574792655                     5      33.0785892729023
361583488      2.20120574792655                     5      35.5385892729023
361583488      2.20120574792655                     5      37.9985892729023