search structure

300 atoms
2  atom types

0   17.131700 xlo xhi
0   10.000000 ylo yhi
0   50.000000 zlo zhi

Atoms

1 2 4.340506 5.000000 34.306500
2 2 4.340506 5.000000 36.766500
3 2 4.340506 5.000000 39.226500
4 2 4.340506 5.000000 41.686500
5 2 4.340506 5.000000 44.146500
6 2 4.340506 5.000000 46.606500
7 2 4.340506 5.000000 49.066500
8 2 6.481969 5.000000 33.076500
9 2 6.481969 5.000000 35.536500
10 2 6.481969 5.000000 37.996500
11 2 6.481969 5.000000 40.456500
12 2 6.481969 5.000000 42.916500
13 2 6.481969 5.000000 45.376500
14 2 6.481969 5.000000 47.836500
15 2 5.768262 5.000000 34.306500
16 2 5.768262 5.000000 36.766500
17 2 5.768262 5.000000 39.226500
18 2 5.768262 5.000000 41.686500
19 2 5.768262 5.000000 44.146500
20 2 5.768262 5.000000 46.606500
21 2 5.768262 5.000000 49.066500
22 2 7.909725 5.000000 33.076500
23 2 7.909725 5.000000 35.536500
24 2 7.909725 5.000000 37.996500
25 2 7.909725 5.000000 40.456500
26 2 7.909725 5.000000 42.916500
27 2 7.909725 5.000000 45.376500
28 2 7.909725 5.000000 47.836500
29 2 8.623431 5.000000 34.306500
30 2 8.623431 5.000000 36.766500
31 1 8.623431 5.000000 39.226500
32 1 8.623431 5.000000 41.686500
33 1 8.623431 5.000000 44.146500
34 1 8.623431 5.000000 46.606500
35 1 8.623431 5.000000 49.066500
36 1 10.764894 5.000000 33.076500
37 1 10.764894 5.000000 35.536500
38 1 10.764894 5.000000 37.996500
39 1 10.764894 5.000000 40.456500
40 1 10.764894 5.000000 42.916500
41 1 10.764894 5.000000 45.376500
42 1 10.764894 5.000000 47.836500
43 1 10.051187 5.000000 34.306500
44 1 10.051187 5.000000 36.766500
45 1 10.051187 5.000000 39.226500
46 1 10.051187 5.000000 41.686500
47 1 10.051187 5.000000 44.146500
48 1 10.051187 5.000000 46.606500
49 1 10.051187 5.000000 49.066500
50 1 12.192650 5.000000 33.076500
51 1 12.192650 5.000000 35.536500
52 1 12.192650 5.000000 37.996500
53 1 12.192650 5.000000 40.456500
54 1 12.192650 5.000000 42.916500
55 1 12.192650 5.000000 45.376500
56 1 12.192650 5.000000 47.836500
57 1 12.906356 5.000000 34.306500
58 1 12.906356 5.000000 36.766500
59 1 12.906356 5.000000 39.226500
60 1 12.906356 5.000000 41.686500
61 1 12.906356 5.000000 44.146500
62 1 12.906356 5.000000 46.606500
63 1 12.906356 5.000000 49.066500
64 1 15.047819 5.000000 33.076500
65 1 15.047819 5.000000 35.536500
66 1 15.047819 5.000000 37.996500
67 1 15.047819 5.000000 40.456500
68 1 15.047819 5.000000 42.916500
69 1 15.047819 5.000000 45.376500
70 1 15.047819 5.000000 47.836500
71 1 14.334112 5.000000 34.306500
72 1 14.334112 5.000000 36.766500
73 1 14.334112 5.000000 39.226500
74 1 14.334112 5.000000 41.686500
75 1 14.334112 5.000000 44.146500
76 1 14.334112 5.000000 46.606500
77 1 14.334112 5.000000 49.066500
78 1 16.475575 5.000000 33.076500
79 1 16.475575 5.000000 35.536500
80 1 16.475575 5.000000 37.996500
81 1 16.475575 5.000000 40.456500
82 1 16.475575 5.000000 42.916500
83 1 16.475575 5.000000 45.376500
84 1 16.475575 5.000000 47.836500
85 1 0.057581 5.000000 34.306500
86 1 0.057581 5.000000 36.766500
87 1 0.057581 5.000000 39.226500
88 1 0.057581 5.000000 41.686500
89 1 0.057581 5.000000 44.146500
90 1 0.057581 5.000000 46.606500
91 1 0.057581 5.000000 49.066500
92 1 2.199044 5.000000 33.076500
93 1 2.199044 5.000000 35.536500
94 1 2.199044 5.000000 37.996500
95 1 2.199044 5.000000 40.456500
96 1 2.199044 5.000000 42.916500
97 1 2.199044 5.000000 45.376500
98 1 2.199044 5.000000 47.836500
99 1 1.485337 5.000000 34.306500
100 1 1.485337 5.000000 36.766500
101 1 1.485337 5.000000 39.226500
102 1 1.485337 5.000000 41.686500
103 1 1.485337 5.000000 44.146500
104 1 1.485337 5.000000 46.606500
105 1 1.485337 5.000000 49.066500
106 1 3.626800 5.000000 33.076500
107 1 3.626800 5.000000 35.536500
108 1 3.626800 5.000000 37.996500
109 1 3.626800 5.000000 40.456500
110 1 3.626800 5.000000 42.916500
111 1 3.626800 5.000000 45.376500
112 1 3.626800 5.000000 47.836500
113 2 3.770363 5.000000 50.054000
114 2 6.338234 5.000000 50.054000
115 2 8.055515 5.000000 50.055000
116 2 10.621159 5.000000 50.054000
117 2 12.338440 5.000000 50.055000
118 2 14.904084 5.000000 50.054000
119 2 16.621365 5.000000 50.055000
120 2 2.055309 5.000000 50.054000
121 1 -0.039917 5.000000 8.565500
122 1 -0.039917 5.000000 12.826500
123 1 -0.039917 5.000000 17.087500
124 1 -0.039917 5.000000 21.348000
125 1 -0.039917 5.000000 9.986000
126 1 -0.039917 5.000000 14.246500
127 1 -0.039917 5.000000 18.507500
128 1 -0.039917 5.000000 22.768500
129 1 15.868066 5.000000 10.696000
130 1 15.868066 5.000000 14.957000
131 1 15.868066 5.000000 19.217500
132 1 15.868066 5.000000 23.478500
133 1 15.868066 5.000000 7.855500
134 1 15.868066 5.000000 12.116500
135 1 15.868066 5.000000 16.377000
136 1 15.868066 5.000000 20.638000
137 1 14.644348 5.000000 8.565500
138 1 14.644348 5.000000 12.826500
139 1 14.644348 5.000000 17.087500
140 1 14.644348 5.000000 21.348000
141 1 13.420631 5.000000 10.696000
142 1 13.420631 5.000000 14.957000
143 1 13.420631 5.000000 19.217500
144 1 13.420631 5.000000 23.478500
145 1 14.644348 5.000000 9.986000
146 1 14.644348 5.000000 14.246500
147 1 14.644348 5.000000 18.507500
148 1 14.644348 5.000000 22.768500
149 1 13.420631 5.000000 7.855500
150 1 13.420631 5.000000 12.116500
151 1 13.420631 5.000000 16.377000
152 1 13.420631 5.000000 20.638000
153 1 12.197085 5.000000 8.565500
154 1 12.197085 5.000000 12.826500
155 1 12.197085 5.000000 17.087500
156 1 12.197085 5.000000 21.348000
157 1 10.973368 5.000000 10.696000
158 1 10.973368 5.000000 14.957000
159 1 10.973368 5.000000 19.217500
160 1 10.973368 5.000000 23.478500
161 1 12.197085 5.000000 9.986000
162 1 12.197085 5.000000 14.246500
163 1 12.197085 5.000000 18.507500
164 1 12.197085 5.000000 22.768500
165 1 10.973368 5.000000 7.855500
166 1 10.973368 5.000000 12.116500
167 1 10.973368 5.000000 16.377000
168 1 10.973368 5.000000 20.638000
169 1 9.749650 5.000000 8.565500
170 1 9.749650 5.000000 12.826500
171 1 9.749650 5.000000 17.087500
172 1 9.749650 5.000000 21.348000
173 1 8.525933 5.000000 10.696000
174 1 8.525933 5.000000 14.957000
175 1 8.525933 5.000000 19.217500
176 1 8.525933 5.000000 23.478500
177 1 9.749650 5.000000 9.986000
178 1 9.749650 5.000000 14.246500
179 1 9.749650 5.000000 18.507500
180 1 9.749650 5.000000 22.768500
181 1 8.525933 5.000000 7.855500
182 1 8.525933 5.000000 12.116500
183 1 8.525933 5.000000 16.377000
184 1 8.525933 5.000000 20.638000
185 1 7.302216 5.000000 8.565500
186 1 7.302216 5.000000 12.826500
187 1 7.302216 5.000000 17.087500
188 1 7.302216 5.000000 21.348000
189 1 6.078498 5.000000 10.696000
190 1 6.078498 5.000000 14.957000
191 1 6.078498 5.000000 19.217500
192 1 6.078498 5.000000 23.478500
193 1 7.302216 5.000000 9.986000
194 1 7.302216 5.000000 14.246500
195 1 7.302216 5.000000 18.507500
196 1 7.302216 5.000000 22.768500
197 1 6.078498 5.000000 7.855500
198 1 6.078498 5.000000 12.116500
199 1 6.078498 5.000000 16.377000
200 1 6.078498 5.000000 20.638000
201 1 4.854781 5.000000 8.565500
202 1 4.854781 5.000000 12.826500
203 1 4.854781 5.000000 17.087500
204 1 4.854781 5.000000 21.348000
205 1 3.631235 5.000000 10.696000
206 1 3.631235 5.000000 14.957000
207 1 3.631235 5.000000 19.217500
208 1 3.631235 5.000000 23.478500
209 1 4.854781 5.000000 9.986000
210 1 4.854781 5.000000 14.246500
211 1 4.854781 5.000000 18.507500
212 1 4.854781 5.000000 22.768500
213 1 3.631235 5.000000 7.855500
214 1 3.631235 5.000000 12.116500
215 1 3.631235 5.000000 16.377000
216 1 3.631235 5.000000 20.638000
217 1 2.407518 5.000000 8.565500
218 1 2.407518 5.000000 12.826500
219 1 2.407518 5.000000 17.087500
220 1 2.407518 5.000000 21.348000
221 1 1.183800 5.000000 10.696000
222 1 1.183800 5.000000 14.957000
223 1 1.183800 5.000000 19.217500
224 1 1.183800 5.000000 23.478500
225 1 2.407518 5.000000 9.986000
226 1 2.407518 5.000000 14.246500
227 1 2.407518 5.000000 18.507500
228 1 2.407518 5.000000 22.768500
229 1 1.183800 5.000000 7.855500
230 1 1.183800 5.000000 12.116500
231 1 1.183800 5.000000 16.377000
232 1 1.183800 5.000000 20.638000
233 2 15.865667 5.000000 6.715500
234 2 13.423030 5.000000 6.715500
235 2 10.975766 5.000000 6.715500
236 2 8.528332 5.000000 6.715500
237 2 6.080897 5.000000 6.715500
238 2 3.633634 5.000000 6.715500
239 2 1.181402 5.000000 6.715500
240 2 7.169766 0.408476 23.944277
241 2 11.530742 0.809292 24.204074
242 2 6.551067 6.665095 24.918565
243 2 13.898896 7.819573 26.299641
244 2 15.814273 7.296525 23.500000
245 2 12.958489 8.070268 24.949090
246 2 14.979324 2.892019 23.500000
247 2 11.870808 6.509861 24.341705
248 2 15.540372 7.264708 24.652024
249 2 16.694655 9.757863 25.024722
250 2 7.046599 1.938412 25.610178
251 2 11.894929 2.088418 24.654327
252 2 8.276539 1.660620 26.378868
253 2 9.849158 0.626931 27.833374
254 2 13.060150 6.037165 24.883665
255 2 2.730254 5.011740 23.749490
256 2 2.239217 7.796872 27.301828
257 2 13.463780 7.569173 27.123739
258 2 3.846490 3.097477 29.018130
259 2 0.596867 8.014084 30.451574
260 2 9.958492 8.788699 23.500000
261 2 8.733708 0.205838 31.888273
262 2 7.295815 0.533555 31.588376
263 2 11.622584 3.472486 32.696434
264 2 11.615020 5.162834 33.000000
265 2 8.363288 6.514673 29.613760
266 2 16.453664 5.578267 28.739190
267 2 10.577349 9.722624 25.479016
268 1 4.956957 2.495877 25.543102
269 1 8.605057 7.701948 25.194364
270 1 3.582855 7.561409 25.259184
271 1 15.595684 9.263950 25.057050
272 1 10.050562 1.908896 25.173179
273 1 12.678709 4.064118 25.620963
274 1 13.026152 1.134263 27.550138
275 1 0.852225 1.223013 23.500000
276 1 16.993387 4.146463 24.015450
277 1 6.083012 5.723396 23.500000
278 1 4.379424 0.882171 23.840527
279 1 2.151442 1.189444 27.630721
280 1 0.614021 0.857987 25.056087
281 1 1.133879 6.787084 24.371489
282 1 2.749164 1.003950 33.000000
283 1 3.511437 3.750694 24.344001
284 1 7.208715 8.068721 31.018426
285 1 10.637088 0.844744 29.236377
286 1 5.162242 7.751489 24.979591
287 1 11.754937 0.909632 27.838712
288 1 6.622945 1.610320 24.357325
289 1 5.917831 0.740589 29.480389
290 1 14.649844 2.149316 32.869473
291 1 4.221835 0.913375 30.543670
292 1 1.223794 0.590253 33.000000
293 1 4.259332 9.317049 31.783256
294 1 15.796809 8.965128 31.302559
295 1 14.973150 9.962210 32.760774
296 1 11.395372 3.030513 30.277245
297 1 5.261007 0.758613 30.239028
298 1 4.643007 1.300395 33.000000
299 1 13.438739 0.818926 33.000000
300 1 0.546576 0.581497 32.665463
