300
Atoms. Timestep: 0
429433760              2.958757                     5               34.3065
429433760              2.958757                     5               36.7665
429433760              2.958757                     5               39.2265
429433760              2.958757                     5               41.6865
429433760              2.958757                     5               44.1465
429433760              2.958757                     5               46.6065
429433760              2.958757                     5               49.0665
429433760               5.10022                     5               33.0765
429433760               5.10022                     5               35.5365
429433760               5.10022                     5               37.9965
429433760               5.10022                     5               40.4565
429433760               5.10022                     5               42.9165
429433760               5.10022                     5               45.3765
429433760               5.10022                     5               47.8365
429433760              4.386513                     5               34.3065
429433760              4.386513                     5               36.7665
429433760              4.386513                     5               39.2265
429433760              4.386513                     5               41.6865
429433760              4.386513                     5               44.1465
429433760              4.386513                     5               46.6065
429433760              4.386513                     5               49.0665
429433760              6.527976                     5               33.0765
429433760              6.527976                     5               35.5365
429433760              6.527976                     5               37.9965
429433760              6.527976                     5               40.4565
429433760              6.527976                     5               42.9165
429433760              6.527976                     5               45.3765
429433760              6.527976                     5               47.8365
429433760              7.241682                     5               34.3065
429433760              7.241682                     5               36.7665
429433728              7.241682                     5               39.2265
429433728              7.241682                     5               41.6865
429433728              7.241682                     5               44.1465
429433728              7.241682                     5               46.6065
429433728              7.241682                     5               49.0665
429433728              9.383145                     5               33.0765
429433728              9.383145                     5               35.5365
429433728              9.383145                     5               37.9965
429433728              9.383145                     5               40.4565
429433728              9.383145                     5               42.9165
429433728              9.383145                     5               45.3765
429433728              9.383145                     5               47.8365
429433728              8.669438                     5               34.3065
429433728              8.669438                     5               36.7665
429433728              8.669438                     5               39.2265
429433728              8.669438                     5               41.6865
429433728              8.669438                     5               44.1465
429433728              8.669438                     5               46.6065
429433728              8.669438                     5               49.0665
429433728             10.810901                     5               33.0765
429433728             10.810901                     5               35.5365
429433728             10.810901                     5               37.9965
429433728             10.810901                     5               40.4565
429433728             10.810901                     5               42.9165
429433728             10.810901                     5               45.3765
429433728             10.810901                     5               47.8365
429433728             11.524607                     5               34.3065
429433728             11.524607                     5               36.7665
429433728             11.524607                     5               39.2265
429433728             11.524607                     5               41.6865
429433728             11.524607                     5               44.1465
429433728             11.524607                     5               46.6065
429433728             11.524607                     5               49.0665
429433728              13.66607                     5               33.0765
429433728              13.66607                     5               35.5365
429433728              13.66607                     5               37.9965
429433728              13.66607                     5               40.4565
429433728              13.66607                     5               42.9165
429433728              13.66607                     5               45.3765
429433728              13.66607                     5               47.8365
429433728             12.952363                     5               34.3065
429433728             12.952363                     5               36.7665
429433728             12.952363                     5               39.2265
429433728             12.952363                     5               41.6865
429433728             12.952363                     5               44.1465
429433728             12.952363                     5               46.6065
429433728             12.952363                     5               49.0665
429433728             15.093826                     5               33.0765
429433728             15.093826                     5               35.5365
429433728             15.093826                     5               37.9965
429433728             15.093826                     5               40.4565
429433728             15.093826                     5               42.9165
429433728             15.093826                     5               45.3765
429433728             15.093826                     5               47.8365
429433728             15.807532                     5               34.3065
429433728             15.807532                     5               36.7665
429433728             15.807532                     5               39.2265
429433728             15.807532                     5               41.6865
429433728             15.807532                     5               44.1465
429433728             15.807532                     5               46.6065
429433728             15.807532                     5               49.0665
429433728              0.817295                     5               33.0765
429433728              0.817295                     5               35.5365
429433728              0.817295                     5               37.9965
429433728              0.817295                     5               40.4565
429433728              0.817295                     5               42.9165
429433728              0.817295                     5               45.3765
429433728              0.817295                     5               47.8365
429433728              0.103588                     5               34.3065
429433728              0.103588                     5               36.7665
429433728              0.103588                     5               39.2265
429433728              0.103588                     5               41.6865
429433728              0.103588                     5               44.1465
429433728              0.103588                     5               46.6065
429433728              0.103588                     5               49.0665
429433728              2.245051                     5               33.0765
429433728              2.245051                     5               35.5365
429433728              2.245051                     5               37.9965
429433728              2.245051                     5               40.4565
429433728              2.245051                     5               42.9165
429433728              2.245051                     5               45.3765
429433728              2.245051                     5               47.8365
429433760              2.388614                     5     0.054000000000002
429433760              4.956485                     5     0.054000000000002
429433760              6.673766                     5    0.0549999999999997
429433760               9.23941                     5     0.054000000000002
429433760             10.956691                     5    0.0549999999999997
429433760             13.522335                     5     0.054000000000002
429433760             15.239616                     5    0.0549999999999997
429433760               0.67356                     5     0.054000000000002
429433728             17.091783                     5                8.5655
429433728             17.091783                     5               12.8265
429433728             17.091783                     5               17.0875
429433728             17.091783                     5                21.348
429433728             17.091783                     5                 9.986
429433728             17.091783                     5               14.2465
429433728             17.091783                     5               18.5075
429433728             17.091783                     5               22.7685
429433728             15.868066                     5                10.696
429433728             15.868066                     5                14.957
429433728             15.868066                     5               19.2175
429433728             15.868066                     5               23.4785
429433728             15.868066                     5                7.8555
429433728             15.868066                     5               12.1165
429433728             15.868066                     5                16.377
429433728             15.868066                     5                20.638
429433728             14.644348                     5                8.5655
429433728             14.644348                     5               12.8265
429433728             14.644348                     5               17.0875
429433728             14.644348                     5                21.348
429433728             13.420631                     5                10.696
429433728             13.420631                     5                14.957
429433728             13.420631                     5               19.2175
429433728             13.420631                     5               23.4785
429433728             14.644348                     5                 9.986
429433728             14.644348                     5               14.2465
429433728             14.644348                     5               18.5075
429433728             14.644348                     5               22.7685
429433728             13.420631                     5                7.8555
429433728             13.420631                     5               12.1165
429433728             13.420631                     5                16.377
429433728             13.420631                     5                20.638
429433728             12.197085                     5                8.5655
429433728             12.197085                     5               12.8265
429433728             12.197085                     5               17.0875
429433728             12.197085                     5                21.348
429433728             10.973368                     5                10.696
429433728             10.973368                     5                14.957
429433728             10.973368                     5               19.2175
429433728             10.973368                     5               23.4785
429433728             12.197085                     5                 9.986
429433728             12.197085                     5               14.2465
429433728             12.197085                     5               18.5075
429433728             12.197085                     5               22.7685
429433728             10.973368                     5                7.8555
429433728             10.973368                     5               12.1165
429433728             10.973368                     5                16.377
429433728             10.973368                     5                20.638
429433728               9.74965                     5                8.5655
429433728               9.74965                     5               12.8265
429433728               9.74965                     5               17.0875
429433728               9.74965                     5                21.348
429433728              8.525933                     5                10.696
429433728              8.525933                     5                14.957
429433728              8.525933                     5               19.2175
429433728              8.525933                     5               23.4785
429433728               9.74965                     5                 9.986
429433728               9.74965                     5               14.2465
429433728               9.74965                     5               18.5075
429433728               9.74965                     5               22.7685
429433728              8.525933                     5                7.8555
429433728              8.525933                     5               12.1165
429433728              8.525933                     5                16.377
429433728              8.525933                     5                20.638
429433728              7.302216                     5                8.5655
429433728              7.302216                     5               12.8265
429433728              7.302216                     5               17.0875
429433728              7.302216                     5                21.348
429433728              6.078498                     5                10.696
429433728              6.078498                     5                14.957
429433728              6.078498                     5               19.2175
429433728              6.078498                     5               23.4785
429433728              7.302216                     5                 9.986
429433728              7.302216                     5               14.2465
429433728              7.302216                     5               18.5075
429433728              7.302216                     5               22.7685
429433728              6.078498                     5                7.8555
429433728              6.078498                     5               12.1165
429433728              6.078498                     5                16.377
429433728              6.078498                     5                20.638
429433728              4.854781                     5                8.5655
429433728              4.854781                     5               12.8265
429433728              4.854781                     5               17.0875
429433728              4.854781                     5                21.348
429433728              3.631235                     5                10.696
429433728              3.631235                     5                14.957
429433728              3.631235                     5               19.2175
429433728              3.631235                     5               23.4785
429433728              4.854781                     5                 9.986
429433728              4.854781                     5               14.2465
429433728              4.854781                     5               18.5075
429433728              4.854781                     5               22.7685
429433728              3.631235                     5                7.8555
429433728              3.631235                     5               12.1165
429433728              3.631235                     5                16.377
429433728              3.631235                     5                20.638
429433728              2.407518                     5                8.5655
429433728              2.407518                     5               12.8265
429433728              2.407518                     5               17.0875
429433728              2.407518                     5                21.348
429433728                1.1838                     5                10.696
429433728                1.1838                     5                14.957
429433728                1.1838                     5               19.2175
429433728                1.1838                     5               23.4785
429433728              2.407518                     5                 9.986
429433728              2.407518                     5               14.2465
429433728              2.407518                     5               18.5075
429433728              2.407518                     5               22.7685
429433728                1.1838                     5                7.8555
429433728                1.1838                     5               12.1165
429433728                1.1838                     5                16.377
429433728                1.1838                     5                20.638
429433760             15.865667                     5                6.7155
429433760              13.42303                     5                6.7155
429433760             10.975766                     5                6.7155
429433760              8.528332                     5                6.7155
429433760              6.080897                     5                6.7155
429433760              3.633634                     5                6.7155
429433760              1.181402                     5                6.7155
429433760             13.616025              1.776886             27.774131
429433760             10.128912              0.774728             24.681483
429433760              3.122301               6.17505             24.312371
429433760              3.558273               5.86593             28.985226
429433760              9.522925              0.063071                  23.5
429433760             14.327982              1.260771             25.895581
429433760              8.718776              2.232249                  23.5
429433760             10.406177              7.833748                  23.5
429433760             15.614854              5.095111              26.13175
429433760              2.343626              4.307734             27.564996
429433760              5.275818               0.83467              27.46949
429433760             11.931028              2.887659             25.638855
429433760              5.842489              5.432223             30.062758
429433760              8.742107               6.41555             27.242751
429433760              1.992838              8.546102             29.066375
429433760              7.987339              9.388149             25.333002
429433760              2.249326              2.567894             25.763004
429433760             15.119947              8.445239             28.262396
429433760              6.560859              1.030715             30.566586
429433760              1.967047              8.538306             30.289515
429433760              4.211927              1.535796             31.783986
429433760              1.378983              5.739911             29.851392
429433760             14.153085               8.17437             28.625459
429433760              2.107756              2.597298             32.419801
429433760             16.049471              2.394313             32.676389
429433760              9.770997               3.29167             30.920721
429433760              9.335814              4.504925             27.903584
429433760             12.738656              8.044518             28.409293
429433728              7.285514               0.23113             25.657631
429433728             15.693919              0.374324                  23.5
429433728              4.126784              0.687483             25.971324
429433728             11.313242              3.576351                  23.5
429433728              9.800347              9.018834             24.538166
429433728              9.248156               1.85246                  23.5
429433728              9.121942              6.573086             25.594791
429433728              1.824027              3.368288             23.905939
429433728              0.631764              8.487445                  23.5
429433728              8.760957              0.364828                  23.5
429433728              1.693929              9.842255                  23.5
429433728               2.47027              4.987856             26.533106
429433728              3.688205              9.003315              25.76536
429433728              2.215464              9.251773             23.920526
429433728              5.660764              9.029697             26.753371
429433728               2.93936              9.501735             26.212863
429433728              5.032815              0.726895              29.12222
429433728             11.607764              6.633725              29.33495
429433728             12.779412              1.419658             30.234884
429433728             12.858851              0.917091               24.3073
429433728              2.154056              1.107788              24.69426
429433728              1.878641              0.625226              26.97693
429433728               4.58014              3.721882             29.831918
429433728              7.310158              0.500193             31.791185
429433728              1.266052              1.862015             32.414305
429433728             16.402073              0.206927             32.324838
429433728             11.725743              0.347472             32.938745
429433728             12.464372              5.037094             30.675502
429433728              4.457742              8.951163                    33
429433728             10.669252              8.433245             32.369281
429433728              4.566875              6.666392               30.8687
429433728              4.213338              7.202496             32.045307
429433728              9.382122              9.717899             32.108557
300
Atoms. Timestep: 10
429433760      2.95883751189101                     5       34.306667282248
429433760      2.95883751189101                     5       36.766667282248
429433760      2.95883751189101                     5       39.226667282248
429433760      2.95883751189101                     5       41.686667282248
429433760      2.95883751189101                     5       44.146667282248
429433760      2.95883751189101                     5       46.606667282248
429433760      2.95883751189101                     5       49.066667282248
429433760      5.10030051189101                     5       33.076667282248
429433760      5.10030051189101                     5       35.536667282248
429433760      5.10030051189101                     5       37.996667282248
429433760      5.10030051189101                     5       40.456667282248
429433760      5.10030051189101                     5       42.916667282248
429433760      5.10030051189101                     5       45.376667282248
429433760      5.10030051189101                     5       47.836667282248
429433760      4.38659351189101                     5       34.306667282248
429433760      4.38659351189101                     5       36.766667282248
429433760      4.38659351189101                     5       39.226667282248
429433760      4.38659351189101                     5       41.686667282248
429433760      4.38659351189101                     5       44.146667282248
429433760      4.38659351189101                     5       46.606667282248
429433760      4.38659351189101                     5       49.066667282248
429433760      6.52805651189101                     5       33.076667282248
429433760      6.52805651189101                     5       35.536667282248
429433760      6.52805651189101                     5       37.996667282248
429433760      6.52805651189101                     5       40.456667282248
429433760      6.52805651189101                     5       42.916667282248
429433760      6.52805651189101                     5       45.376667282248
429433760      6.52805651189101                     5       47.836667282248
429433760      7.24176251189101                     5       34.306667282248
429433760      7.24176251189101                     5       36.766667282248
429433728      7.24176251189101                     5       39.226667282248
429433728      7.24176251189101                     5       41.686667282248
429433728      7.24176251189101                     5       44.146667282248
429433728      7.24176251189101                     5       46.606667282248
429433728      7.24176251189101                     5       49.066667282248
429433728      9.38322551189101                     5       33.076667282248
429433728      9.38322551189101                     5       35.536667282248
429433728      9.38322551189101                     5       37.996667282248
429433728      9.38322551189101                     5       40.456667282248
429433728      9.38322551189101                     5       42.916667282248
429433728      9.38322551189101                     5       45.376667282248
429433728      9.38322551189101                     5       47.836667282248
429433728      8.66951851189101                     5       34.306667282248
429433728      8.66951851189101                     5       36.766667282248
429433728      8.66951851189101                     5       39.226667282248
429433728      8.66951851189101                     5       41.686667282248
429433728      8.66951851189101                     5       44.146667282248
429433728      8.66951851189101                     5       46.606667282248
429433728      8.66951851189101                     5       49.066667282248
429433728       10.810981511891                     5       33.076667282248
429433728       10.810981511891                     5       35.536667282248
429433728       10.810981511891                     5       37.996667282248
429433728       10.810981511891                     5       40.456667282248
429433728       10.810981511891                     5       42.916667282248
429433728       10.810981511891                     5       45.376667282248
429433728       10.810981511891                     5       47.836667282248
429433728       11.524687511891                     5       34.306667282248
429433728       11.524687511891                     5       36.766667282248
429433728       11.524687511891                     5       39.226667282248
429433728       11.524687511891                     5       41.686667282248
429433728       11.524687511891                     5       44.146667282248
429433728       11.524687511891                     5       46.606667282248
429433728       11.524687511891                     5       49.066667282248
429433728       13.666150511891                     5       33.076667282248
429433728       13.666150511891                     5       35.536667282248
429433728       13.666150511891                     5       37.996667282248
429433728       13.666150511891                     5       40.456667282248
429433728       13.666150511891                     5       42.916667282248
429433728       13.666150511891                     5       45.376667282248
429433728       13.666150511891                     5       47.836667282248
429433728       12.952443511891                     5       34.306667282248
429433728       12.952443511891                     5       36.766667282248
429433728       12.952443511891                     5       39.226667282248
429433728       12.952443511891                     5       41.686667282248
429433728       12.952443511891                     5       44.146667282248
429433728       12.952443511891                     5       46.606667282248
429433728       12.952443511891                     5       49.066667282248
429433728       15.093906511891                     5       33.076667282248
429433728       15.093906511891                     5       35.536667282248
429433728       15.093906511891                     5       37.996667282248
429433728       15.093906511891                     5       40.456667282248
429433728       15.093906511891                     5       42.916667282248
429433728       15.093906511891                     5       45.376667282248
429433728       15.093906511891                     5       47.836667282248
429433728       15.807612511891                     5       34.306667282248
429433728       15.807612511891                     5       36.766667282248
429433728       15.807612511891                     5       39.226667282248
429433728       15.807612511891                     5       41.686667282248
429433728       15.807612511891                     5       44.146667282248
429433728       15.807612511891                     5       46.606667282248
429433728       15.807612511891                     5       49.066667282248
429433728     0.817375511891008                     5       33.076667282248
429433728     0.817375511891008                     5       35.536667282248
429433728     0.817375511891008                     5       37.996667282248