search structure

300 atoms
2  atom types

0   17.131700 xlo xhi
0   10.000000 ylo yhi
0   50.000000 zlo zhi

Atoms

1 2 2.958757 5.000000 34.306500
2 2 2.958757 5.000000 36.766500
3 2 2.958757 5.000000 39.226500
4 2 2.958757 5.000000 41.686500
5 2 2.958757 5.000000 44.146500
6 2 2.958757 5.000000 46.606500
7 2 2.958757 5.000000 49.066500
8 2 5.100220 5.000000 33.076500
9 2 5.100220 5.000000 35.536500
10 2 5.100220 5.000000 37.996500
11 2 5.100220 5.000000 40.456500
12 2 5.100220 5.000000 42.916500
13 2 5.100220 5.000000 45.376500
14 2 5.100220 5.000000 47.836500
15 2 4.386513 5.000000 34.306500
16 2 4.386513 5.000000 36.766500
17 2 4.386513 5.000000 39.226500
18 2 4.386513 5.000000 41.686500
19 2 4.386513 5.000000 44.146500
20 2 4.386513 5.000000 46.606500
21 2 4.386513 5.000000 49.066500
22 2 6.527976 5.000000 33.076500
23 2 6.527976 5.000000 35.536500
24 2 6.527976 5.000000 37.996500
25 2 6.527976 5.000000 40.456500
26 2 6.527976 5.000000 42.916500
27 2 6.527976 5.000000 45.376500
28 2 6.527976 5.000000 47.836500
29 2 7.241682 5.000000 34.306500
30 2 7.241682 5.000000 36.766500
31 1 7.241682 5.000000 39.226500
32 1 7.241682 5.000000 41.686500
33 1 7.241682 5.000000 44.146500
34 1 7.241682 5.000000 46.606500
35 1 7.241682 5.000000 49.066500
36 1 9.383145 5.000000 33.076500
37 1 9.383145 5.000000 35.536500
38 1 9.383145 5.000000 37.996500
39 1 9.383145 5.000000 40.456500
40 1 9.383145 5.000000 42.916500
41 1 9.383145 5.000000 45.376500
42 1 9.383145 5.000000 47.836500
43 1 8.669438 5.000000 34.306500
44 1 8.669438 5.000000 36.766500
45 1 8.669438 5.000000 39.226500
46 1 8.669438 5.000000 41.686500
47 1 8.669438 5.000000 44.146500
48 1 8.669438 5.000000 46.606500
49 1 8.669438 5.000000 49.066500
50 1 10.810901 5.000000 33.076500
51 1 10.810901 5.000000 35.536500
52 1 10.810901 5.000000 37.996500
53 1 10.810901 5.000000 40.456500
54 1 10.810901 5.000000 42.916500
55 1 10.810901 5.000000 45.376500
56 1 10.810901 5.000000 47.836500
57 1 11.524607 5.000000 34.306500
58 1 11.524607 5.000000 36.766500
59 1 11.524607 5.000000 39.226500
60 1 11.524607 5.000000 41.686500
61 1 11.524607 5.000000 44.146500
62 1 11.524607 5.000000 46.606500
63 1 11.524607 5.000000 49.066500
64 1 13.666070 5.000000 33.076500
65 1 13.666070 5.000000 35.536500
66 1 13.666070 5.000000 37.996500
67 1 13.666070 5.000000 40.456500
68 1 13.666070 5.000000 42.916500
69 1 13.666070 5.000000 45.376500
70 1 13.666070 5.000000 47.836500
71 1 12.952363 5.000000 34.306500
72 1 12.952363 5.000000 36.766500
73 1 12.952363 5.000000 39.226500
74 1 12.952363 5.000000 41.686500
75 1 12.952363 5.000000 44.146500
76 1 12.952363 5.000000 46.606500
77 1 12.952363 5.000000 49.066500
78 1 15.093826 5.000000 33.076500
79 1 15.093826 5.000000 35.536500
80 1 15.093826 5.000000 37.996500
81 1 15.093826 5.000000 40.456500
82 1 15.093826 5.000000 42.916500
83 1 15.093826 5.000000 45.376500
84 1 15.093826 5.000000 47.836500
85 1 15.807532 5.000000 34.306500
86 1 15.807532 5.000000 36.766500
87 1 15.807532 5.000000 39.226500
88 1 15.807532 5.000000 41.686500
89 1 15.807532 5.000000 44.146500
90 1 15.807532 5.000000 46.606500
91 1 15.807532 5.000000 49.066500
92 1 0.817295 5.000000 33.076500
93 1 0.817295 5.000000 35.536500
94 1 0.817295 5.000000 37.996500
95 1 0.817295 5.000000 40.456500
96 1 0.817295 5.000000 42.916500
97 1 0.817295 5.000000 45.376500
98 1 0.817295 5.000000 47.836500
99 1 0.103588 5.000000 34.306500
100 1 0.103588 5.000000 36.766500
101 1 0.103588 5.000000 39.226500
102 1 0.103588 5.000000 41.686500
103 1 0.103588 5.000000 44.146500
104 1 0.103588 5.000000 46.606500
105 1 0.103588 5.000000 49.066500
106 1 2.245051 5.000000 33.076500
107 1 2.245051 5.000000 35.536500
108 1 2.245051 5.000000 37.996500
109 1 2.245051 5.000000 40.456500
110 1 2.245051 5.000000 42.916500
111 1 2.245051 5.000000 45.376500
112 1 2.245051 5.000000 47.836500
113 2 2.388614 5.000000 50.054000
114 2 4.956485 5.000000 50.054000
115 2 6.673766 5.000000 50.055000
116 2 9.239410 5.000000 50.054000
117 2 10.956691 5.000000 50.055000
118 2 13.522335 5.000000 50.054000
119 2 15.239616 5.000000 50.055000
120 2 0.673560 5.000000 50.054000
121 1 -0.039917 5.000000 8.565500
122 1 -0.039917 5.000000 12.826500
123 1 -0.039917 5.000000 17.087500
124 1 -0.039917 5.000000 21.348000
125 1 -0.039917 5.000000 9.986000
126 1 -0.039917 5.000000 14.246500
127 1 -0.039917 5.000000 18.507500
128 1 -0.039917 5.000000 22.768500
129 1 15.868066 5.000000 10.696000
130 1 15.868066 5.000000 14.957000
131 1 15.868066 5.000000 19.217500
132 1 15.868066 5.000000 23.478500
133 1 15.868066 5.000000 7.855500
134 1 15.868066 5.000000 12.116500
135 1 15.868066 5.000000 16.377000
136 1 15.868066 5.000000 20.638000
137 1 14.644348 5.000000 8.565500
138 1 14.644348 5.000000 12.826500
139 1 14.644348 5.000000 17.087500
140 1 14.644348 5.000000 21.348000
141 1 13.420631 5.000000 10.696000
142 1 13.420631 5.000000 14.957000
143 1 13.420631 5.000000 19.217500
144 1 13.420631 5.000000 23.478500
145 1 14.644348 5.000000 9.986000
146 1 14.644348 5.000000 14.246500
147 1 14.644348 5.000000 18.507500
148 1 14.644348 5.000000 22.768500
149 1 13.420631 5.000000 7.855500
150 1 13.420631 5.000000 12.116500
151 1 13.420631 5.000000 16.377000
152 1 13.420631 5.000000 20.638000
153 1 12.197085 5.000000 8.565500
154 1 12.197085 5.000000 12.826500
155 1 12.197085 5.000000 17.087500
156 1 12.197085 5.000000 21.348000
157 1 10.973368 5.000000 10.696000
158 1 10.973368 5.000000 14.957000
159 1 10.973368 5.000000 19.217500
160 1 10.973368 5.000000 23.478500
161 1 12.197085 5.000000 9.986000
162 1 12.197085 5.000000 14.246500
163 1 12.197085 5.000000 18.507500
164 1 12.197085 5.000000 22.768500
165 1 10.973368 5.000000 7.855500
166 1 10.973368 5.000000 12.116500
167 1 10.973368 5.000000 16.377000
168 1 10.973368 5.000000 20.638000
169 1 9.749650 5.000000 8.565500
170 1 9.749650 5.000000 12.826500
171 1 9.749650 5.000000 17.087500
172 1 9.749650 5.000000 21.348000
173 1 8.525933 5.000000 10.696000
174 1 8.525933 5.000000 14.957000
175 1 8.525933 5.000000 19.217500
176 1 8.525933 5.000000 23.478500
177 1 9.749650 5.000000 9.986000
178 1 9.749650 5.000000 14.246500
179 1 9.749650 5.000000 18.507500
180 1 9.749650 5.000000 22.768500
181 1 8.525933 5.000000 7.855500
182 1 8.525933 5.000000 12.116500
183 1 8.525933 5.000000 16.377000
184 1 8.525933 5.000000 20.638000
185 1 7.302216 5.000000 8.565500
186 1 7.302216 5.000000 12.826500
187 1 7.302216 5.000000 17.087500
188 1 7.302216 5.000000 21.348000
189 1 6.078498 5.000000 10.696000
190 1 6.078498 5.000000 14.957000
191 1 6.078498 5.000000 19.217500
192 1 6.078498 5.000000 23.478500
193 1 7.302216 5.000000 9.986000
194 1 7.302216 5.000000 14.246500
195 1 7.302216 5.000000 18.507500
196 1 7.302216 5.000000 22.768500
197 1 6.078498 5.000000 7.855500
198 1 6.078498 5.000000 12.116500
199 1 6.078498 5.000000 16.377000
200 1 6.078498 5.000000 20.638000
201 1 4.854781 5.000000 8.565500
202 1 4.854781 5.000000 12.826500
203 1 4.854781 5.000000 17.087500
204 1 4.854781 5.000000 21.348000
205 1 3.631235 5.000000 10.696000
206 1 3.631235 5.000000 14.957000
207 1 3.631235 5.000000 19.217500
208 1 3.631235 5.000000 23.478500
209 1 4.854781 5.000000 9.986000
210 1 4.854781 5.000000 14.246500
211 1 4.854781 5.000000 18.507500
212 1 4.854781 5.000000 22.768500
213 1 3.631235 5.000000 7.855500
214 1 3.631235 5.000000 12.116500
215 1 3.631235 5.000000 16.377000
216 1 3.631235 5.000000 20.638000
217 1 2.407518 5.000000 8.565500
218 1 2.407518 5.000000 12.826500
219 1 2.407518 5.000000 17.087500
220 1 2.407518 5.000000 21.348000
221 1 1.183800 5.000000 10.696000
222 1 1.183800 5.000000 14.957000
223 1 1.183800 5.000000 19.217500
224 1 1.183800 5.000000 23.478500
225 1 2.407518 5.000000 9.986000
226 1 2.407518 5.000000 14.246500
227 1 2.407518 5.000000 18.507500
228 1 2.407518 5.000000 22.768500
229 1 1.183800 5.000000 7.855500
230 1 1.183800 5.000000 12.116500
231 1 1.183800 5.000000 16.377000
232 1 1.183800 5.000000 20.638000
233 2 15.865667 5.000000 6.715500
234 2 13.423030 5.000000 6.715500
235 2 10.975766 5.000000 6.715500
236 2 8.528332 5.000000 6.715500
237 2 6.080897 5.000000 6.715500
238 2 3.633634 5.000000 6.715500
239 2 1.181402 5.000000 6.715500
240 2 13.616025 1.776886 27.774131
241 2 10.128912 0.774728 24.681483
242 2 3.122301 6.175050 24.312371
243 2 3.558273 5.865930 28.985226
244 2 9.522925 0.063071 23.500000
245 2 14.327982 1.260771 25.895581
246 2 8.718776 2.232249 23.500000
247 2 10.406177 7.833748 23.500000
248 2 15.614854 5.095111 26.131750
249 2 2.343626 4.307734 27.564996
250 2 5.275818 0.834670 27.469490
251 2 11.931028 2.887659 25.638855
252 2 5.842489 5.432223 30.062758
253 2 8.742107 6.415550 27.242751
254 2 1.992838 8.546102 29.066375
255 2 7.987339 9.388149 25.333002
256 2 2.249326 2.567894 25.763004
257 2 15.119947 8.445239 28.262396
258 2 6.560859 1.030715 30.566586
259 2 1.967047 8.538306 30.289515
260 2 4.211927 1.535796 31.783986
261 2 1.378983 5.739911 29.851392
262 2 14.153085 8.174370 28.625459
263 2 2.107756 2.597298 32.419801
264 2 16.049471 2.394313 32.676389
265 2 9.770997 3.291670 30.920721
266 2 9.335814 4.504925 27.903584
267 2 12.738656 8.044518 28.409293
268 1 7.285514 0.231130 25.657631
269 1 15.693919 0.374324 23.500000
270 1 4.126784 0.687483 25.971324
271 1 11.313242 3.576351 23.500000
272 1 9.800347 9.018834 24.538166
273 1 9.248156 1.852460 23.500000
274 1 9.121942 6.573086 25.594791
275 1 1.824027 3.368288 23.905939
276 1 0.631764 8.487445 23.500000
277 1 8.760957 0.364828 23.500000
278 1 1.693929 9.842255 23.500000
279 1 2.470270 4.987856 26.533106
280 1 3.688205 9.003315 25.765360
281 1 2.215464 9.251773 23.920526
282 1 5.660764 9.029697 26.753371
283 1 2.939360 9.501735 26.212863
284 1 5.032815 0.726895 29.122220
285 1 11.607764 6.633725 29.334950
286 1 12.779412 1.419658 30.234884
287 1 12.858851 0.917091 24.307300
288 1 2.154056 1.107788 24.694260
289 1 1.878641 0.625226 26.976930
290 1 4.580140 3.721882 29.831918
291 1 7.310158 0.500193 31.791185
292 1 1.266052 1.862015 32.414305
293 1 16.402073 0.206927 32.324838
294 1 11.725743 0.347472 32.938745
295 1 12.464372 5.037094 30.675502
296 1 4.457742 8.951163 33.000000
297 1 10.669252 8.433245 32.369281
298 1 4.566875 6.666392 30.868700
299 1 4.213338 7.202496 32.045307
300 1 9.382122 9.717899 32.108557
