300
Atoms. Timestep: 0
433640352              1.909759                     5             36.490439
433640352              1.909759                     5             38.950439
433640352              1.909759                     5             41.410439
433640352              1.909759                     5             43.870439
433640352              1.909759                     5             46.330439
433640352              1.909759                     5             48.790439
433640352              1.909759                     5              1.250439
433640352              4.051221                     5             35.260439
433640352              4.051221                     5             37.720439
433640352              4.051221                     5             40.180439
433640352              4.051221                     5             42.640439
433640352              4.051221                     5             45.100439
433640352              4.051221                     5             47.560439
433640352              4.051221                     5    0.0204390000000032
433640352              3.337515                     5             36.490439
433640352              3.337515                     5             38.950439
433640352              3.337515                     5             41.410439
433640352              3.337515                     5             43.870439
433640352              3.337515                     5             46.330439
433640352              3.337515                     5             48.790439
433640352              3.337515                     5              1.250439
433640352              5.478977                     5             35.260439
433640352              5.478977                     5             37.720439
433640352              5.478977                     5             40.180439
433640352              5.478977                     5             42.640439
433640352              5.478977                     5             45.100439
433640352              5.478977                     5             47.560439
433640352              5.478977                     5    0.0204390000000032
433640352              6.192684                     5             36.490439
433640352              6.192684                     5             38.950439
433640320              6.192684                     5             41.410439
433640320              6.192684                     5             43.870439
433640320              6.192684                     5             46.330439
433640320              6.192684                     5             48.790439
433640320              6.192684                     5              1.250439
433640320              8.334146                     5             35.260439
433640320              8.334146                     5             37.720439
433640320              8.334146                     5             40.180439
433640320              8.334146                     5             42.640439
433640320              8.334146                     5             45.100439
433640320              8.334146                     5             47.560439
433640320              8.334146                     5    0.0204390000000032
433640320               7.62044                     5             36.490439
433640320               7.62044                     5             38.950439
433640320               7.62044                     5             41.410439
433640320               7.62044                     5             43.870439
433640320               7.62044                     5             46.330439
433640320               7.62044                     5             48.790439
433640320               7.62044                     5              1.250439
433640320              9.761902                     5             35.260439
433640320              9.761902                     5             37.720439
433640320              9.761902                     5             40.180439
433640320              9.761902                     5             42.640439
433640320              9.761902                     5             45.100439
433640320              9.761902                     5             47.560439
433640320              9.761902                     5    0.0204390000000032
433640320             10.475609                     5             36.490439
433640320             10.475609                     5             38.950439
433640320             10.475609                     5             41.410439
433640320             10.475609                     5             43.870439
433640320             10.475609                     5             46.330439
433640320             10.475609                     5             48.790439
433640320             10.475609                     5              1.250439
433640320             12.617071                     5             35.260439
433640320             12.617071                     5             37.720439
433640320             12.617071                     5             40.180439
433640320             12.617071                     5             42.640439
433640320             12.617071                     5             45.100439
433640320             12.617071                     5             47.560439
433640320             12.617071                     5    0.0204390000000032
433640320             11.903365                     5             36.490439
433640320             11.903365                     5             38.950439
433640320             11.903365                     5             41.410439
433640320             11.903365                     5             43.870439
433640320             11.903365                     5             46.330439
433640320             11.903365                     5             48.790439
433640320             11.903365                     5              1.250439
433640320             14.044827                     5             35.260439
433640320             14.044827                     5             37.720439
433640320             14.044827                     5             40.180439
433640320             14.044827                     5             42.640439
433640320             14.044827                     5             45.100439
433640320             14.044827                     5             47.560439
433640320             14.044827                     5    0.0204390000000032
433640320             14.758534                     5             36.490439
433640320             14.758534                     5             38.950439
433640320             14.758534                     5             41.410439
433640320             14.758534                     5             43.870439
433640320             14.758534                     5             46.330439
433640320             14.758534                     5             48.790439
433640320             14.758534                     5              1.250439
433640320             16.899996                     5             35.260439
433640320             16.899996                     5             37.720439
433640320             16.899996                     5             40.180439
433640320             16.899996                     5             42.640439
433640320             16.899996                     5             45.100439
433640320             16.899996                     5             47.560439
433640320             16.899996                     5    0.0204390000000032
433640320              16.18629                     5             36.490439
433640320              16.18629                     5             38.950439
433640320              16.18629                     5             41.410439
433640320              16.18629                     5             43.870439
433640320              16.18629                     5             46.330439
433640320              16.18629                     5             48.790439
433640320              16.18629                     5              1.250439
433640320              1.196052                     5             35.260439
433640320              1.196052                     5             37.720439
433640320              1.196052                     5             40.180439
433640320              1.196052                     5             42.640439
433640320              1.196052                     5             45.100439
433640320              1.196052                     5             47.560439
433640320              1.196052                     5    0.0204390000000032
433640352              1.339616                     5              2.237939
433640352              3.907486                     5              2.237939
433640352              5.624768                     5              2.238939
433640352              8.190411                     5              2.237939
433640352              9.907693                     5              2.238939
433640352             12.473336                     5              2.237939
433640352             14.190618                     5              2.238939
433640352             16.756261                     5              2.237939
433640320             17.091783                     5                8.5655
433640320             17.091783                     5               12.8265
433640320             17.091783                     5               17.0875
433640320             17.091783                     5                21.348
433640320             17.091783                     5                 9.986
433640320             17.091783                     5               14.2465
433640320             17.091783                     5               18.5075
433640320             17.091783                     5               22.7685
433640320             15.868066                     5                10.696
433640320             15.868066                     5                14.957
433640320             15.868066                     5               19.2175
433640320             15.868066                     5               23.4785
433640320             15.868066                     5                7.8555
433640320             15.868066                     5               12.1165
433640320             15.868066                     5                16.377
433640320             15.868066                     5                20.638
433640320             14.644348                     5                8.5655
433640320             14.644348                     5               12.8265
433640320             14.644348                     5               17.0875
433640320             14.644348                     5                21.348
433640320             13.420631                     5                10.696
433640320             13.420631                     5                14.957
433640320             13.420631                     5               19.2175
433640320             13.420631                     5               23.4785
433640320             14.644348                     5                 9.986
433640320             14.644348                     5               14.2465
433640320             14.644348                     5               18.5075
433640320             14.644348                     5               22.7685
433640320             13.420631                     5                7.8555
433640320             13.420631                     5               12.1165
433640320             13.420631                     5                16.377
433640320             13.420631                     5                20.638
433640320             12.197085                     5                8.5655
433640320             12.197085                     5               12.8265
433640320             12.197085                     5               17.0875
433640320             12.197085                     5                21.348
433640320             10.973368                     5                10.696
433640320             10.973368                     5                14.957
433640320             10.973368                     5               19.2175
433640320             10.973368                     5               23.4785
433640320             12.197085                     5                 9.986
433640320             12.197085                     5               14.2465
433640320             12.197085                     5               18.5075
433640320             12.197085                     5               22.7685
433640320             10.973368                     5                7.8555
433640320             10.973368                     5               12.1165
433640320             10.973368                     5                16.377
433640320             10.973368                     5                20.638
433640320               9.74965                     5                8.5655
433640320               9.74965                     5               12.8265
433640320               9.74965                     5               17.0875
433640320               9.74965                     5                21.348
433640320              8.525933                     5                10.696
433640320              8.525933                     5                14.957
433640320              8.525933                     5               19.2175
433640320              8.525933                     5               23.4785
433640320               9.74965                     5                 9.986
433640320               9.74965                     5               14.2465
433640320               9.74965                     5               18.5075
433640320               9.74965                     5               22.7685
433640320              8.525933                     5                7.8555
433640320              8.525933                     5               12.1165
433640320              8.525933                     5                16.377
433640320              8.525933                     5                20.638
433640320              7.302216                     5                8.5655
433640320              7.302216                     5               12.8265
433640320              7.302216                     5               17.0875
433640320              7.302216                     5                21.348
433640320              6.078498                     5                10.696
433640320              6.078498                     5                14.957
433640320              6.078498                     5               19.2175
433640320              6.078498                     5               23.4785
433640320              7.302216                     5                 9.986
433640320              7.302216                     5               14.2465
433640320              7.302216                     5               18.5075
433640320              7.302216                     5               22.7685
433640320              6.078498                     5                7.8555
433640320              6.078498                     5               12.1165
433640320              6.078498                     5                16.377
433640320              6.078498                     5                20.638
433640320              4.854781                     5                8.5655
433640320              4.854781                     5               12.8265
433640320              4.854781                     5               17.0875
433640320              4.854781                     5                21.348
433640320              3.631235                     5                10.696
433640320              3.631235                     5                14.957
433640320              3.631235                     5               19.2175
433640320              3.631235                     5               23.4785
433640320              4.854781                     5                 9.986
433640320              4.854781                     5               14.2465
433640320              4.854781                     5               18.5075
433640320              4.854781                     5               22.7685
433640320              3.631235                     5                7.8555
433640320              3.631235                     5               12.1165
433640320              3.631235                     5                16.377
433640320              3.631235                     5                20.638
433640320              2.407518                     5                8.5655
433640320              2.407518                     5               12.8265
433640320              2.407518                     5               17.0875
433640320              2.407518                     5                21.348
433640320                1.1838                     5                10.696
433640320                1.1838                     5                14.957
433640320                1.1838                     5               19.2175
433640320                1.1838                     5               23.4785
433640320              2.407518                     5                 9.986
433640320              2.407518                     5               14.2465
433640320              2.407518                     5               18.5075
433640320              2.407518                     5               22.7685
433640320                1.1838                     5                7.8555
433640320                1.1838                     5               12.1165
433640320                1.1838                     5                16.377
433640320                1.1838                     5                20.638
433640352             15.865667                     5                6.7155
433640352              13.42303                     5                6.7155
433640352             10.975766                     5                6.7155
433640352              8.528332                     5                6.7155
433640352              6.080897                     5                6.7155
433640352              3.633634                     5                6.7155
433640352              1.181402                     5                6.7155
433640352             15.715054              0.771992             25.821754
433640352              0.253051              0.797673             27.441582
433640352              2.739568              3.409428             25.490235
433640352               5.32771              9.027739              25.22868
433640352              3.368119              9.274098             24.328579
433640352             10.945823              3.520186             24.584742
433640352              3.603863              6.154053                  23.5
433640352              5.617974              6.621425             24.984126
433640352             12.449664              6.348103              26.65161
433640352             17.041784              0.326259             28.011775
433640352              3.909089              2.397655             27.719347
433640352              4.105851              5.382188             26.730973
433640352              9.446394              4.830585             29.734582
433640352              2.233978              1.914958             28.178077
433640352              8.086372               3.15601             27.186924
433640352             12.513287              6.966904             25.038417
433640352              4.303298              7.556917             28.180908
433640352              8.959629              0.412311             28.166358
433640352              0.264847              5.094153             34.493808
433640352               9.19839              1.954589             33.367826
433640352             10.231405               4.34071             27.587078
433640352              2.988947              1.073669             29.593075
433640352              5.665411              9.060078              34.20309
433640352              8.420067              2.128685             30.490027
433640352              6.648501              6.315102             35.183939
433640352              3.770628              6.392762             34.907972
433640352              9.782958              8.552621             28.963932
433640352             12.671243                9.4617              29.29661
433640320              7.476086              9.168256             26.408813
433640320              4.365456              1.247841             24.333049
433640320             16.320181              4.991593             25.061056
433640320             14.636722              8.726294              25.15717
433640320             11.283792              0.065457             24.756919
433640320             12.711975              1.946977             24.495991
433640320             12.561638              5.145636             25.180543
433640320             13.846987              6.895165             25.471913
433640320             15.464614              8.164224             25.434496
433640320             10.479371              0.458854             24.032016
433640320             14.122103              0.664754             23.547585
433640320             17.091099              9.614013              29.82764
433640320              3.699285              1.605719             30.310358
433640320              0.414204              2.902521             29.428144
433640320              7.329538              8.480446             29.352862
433640320              5.074789              0.049846             28.033775
433640320              8.107934               2.26188             29.014131
433640320             15.299462              3.118707             26.539474
433640320              8.074408              7.423902             27.850824
433640320              9.017742              8.070443             29.963265
433640320             12.107138              7.117336             27.826276
433640320              9.806573              8.486789             27.684008
433640320              5.607339              8.882729               35.0587
433640320             12.618433              1.453595             33.307371
433640320              9.326337              3.024654             35.183939
433640320             17.093127              3.708572             33.399396
433640320              6.353836              9.298196             35.183939
433640320             11.650718              3.006195             35.183939
433640320             16.444295              5.486064             31.393914
433640320              9.937787              5.340127             32.511842
433640320             13.323267              4.533836             35.141636
433640320             11.940059              9.752849             33.563812
433640320              1.301931              9.434102             34.265735
300
Atoms. Timestep: 10
433640352      1.90952237927896                     5      36.4992940795627
433640352      1.90952237927896                     5      38.9592940795627
433640352      1.90952237927896                     5      41.4192940795627
433640352      1.90952237927896                     5      43.8792940795627
433640352      1.90952237927896                     5      46.3392940795627
433640352      1.90952237927896                     5      48.7992940795627
433640352      1.90952237927896                     5       1.2592940795627
433640352      4.05098437927896                     5      35.2692940795627
433640352      4.05098437927896                     5      37.7292940795627
433640352      4.05098437927896                     5      40.1892940795627
433640352      4.05098437927896                     5      42.6492940795627
433640352      4.05098437927896                     5      45.1092940795627
433640352      4.05098437927896                     5      47.5692940795627
433640352      4.05098437927896                     5    0.0292940795626998
433640352      3.33727837927896                     5      36.4992940795627
433640352      3.33727837927896                     5      38.9592940795627
433640352      3.33727837927896                     5      41.4192940795627
433640352      3.33727837927896                     5      43.8792940795627
433640352      3.33727837927896                     5      46.3392940795627
433640352      3.33727837927896                     5      48.7992940795627
433640352      3.33727837927896                     5       1.2592940795627
433640352      5.47874037927896                     5      35.2692940795627
433640352      5.47874037927896                     5      37.7292940795627
433640352      5.47874037927896                     5      40.1892940795627
433640352      5.47874037927896                     5      42.6492940795627
433640352      5.47874037927896                     5      45.1092940795627
433640352      5.47874037927896                     5      47.5692940795627
433640352      5.47874037927896                     5    0.0292940795626998
433640352      6.19244737927896                     5      36.4992940795627
433640352      6.19244737927896                     5      38.9592940795627
433640320      6.19244737927896                     5      41.4192940795627
433640320      6.19244737927896                     5      43.8792940795627
433640320      6.19244737927896                     5      46.3392940795627
433640320      6.19244737927896                     5      48.7992940795627
433640320      6.19244737927896                     5       1.2592940795627
433640320      8.33390937927896                     5      35.2692940795627
433640320      8.33390937927896                     5      37.7292940795627
433640320      8.33390937927896                     5      40.1892940795627
433640320      8.33390937927896                     5      42.6492940795627
433640320      8.33390937927896                     5      45.1092940795627
433640320      8.33390937927896                     5      47.5692940795627
433640320      8.33390937927896                     5    0.0292940795626998
433640320      7.62020337927896                     5      36.4992940795627
433640320      7.62020337927896                     5      38.9592940795627
433640320      7.62020337927896                     5      41.4192940795627
433640320      7.62020337927896                     5      43.8792940795627
433640320      7.62020337927896                     5      46.3392940795627
433640320      7.62020337927896                     5      48.7992940795627
433640320      7.62020337927896                     5       1.2592940795627
433640320      9.76166537927896                     5      35.2692940795627
433640320      9.76166537927896                     5      37.7292940795627
433640320      9.76166537927896                     5      40.1892940795627
433640320      9.76166537927896                     5      42.6492940795627
433640320      9.76166537927896                     5      45.1092940795627
433640320      9.76166537927896                     5      47.5692940795627
433640320      9.76166537927896                     5    0.0292940795626998
433640320       10.475372379279                     5      36.4992940795627
433640320       10.475372379279                     5      38.9592940795627
433640320       10.475372379279                     5      41.4192940795627
433640320       10.475372379279                     5      43.8792940795627
433640320       10.475372379279                     5      46.3392940795627
433640320       10.475372379279                     5      48.7992940795627
433640320       10.475372379279                     5       1.2592940795627
433640320       12.616834379279                     5      35.2692940795627
433640320       12.616834379279                     5      37.7292940795627
433640320       12.616834379279                     5      40.1892940795627
433640320       12.616834379279                     5      42.6492940795627
433640320       12.616834379279                     5      45.1092940795627
433640320       12.616834379279                     5      47.5692940795627
433640320       12.616834379279                     5    0.0292940795626998
433640320       11.903128379279                     5      36.4992940795627
433640320       11.903128379279                     5      38.9592940795627
433640320       11.903128379279                     5      41.4192940795627
433640320       11.903128379279                     5      43.8792940795627
433640320       11.903128379279                     5      46.3392940795627
433640320       11.903128379279                     5      48.7992940795627
433640320       11.903128379279                     5       1.2592940795627
433640320       14.044590379279                     5      35.2692940795627
433640320       14.044590379279                     5      37.7292940795627
433640320       14.044590379279                     5      40.1892940795627
433640320       14.044590379279                     5      42.6492940795627
433640320       14.044590379279                     5      45.1092940795627
433640320       14.044590379279                     5      47.5692940795627
433640320       14.044590379279                     5    0.0292940795626998
433640320       14.758297379279                     5      36.4992940795627
433640320       14.758297379279                     5      38.9592940795627
433640320       14.758297379279                     5      41.4192940795627
433640320       14.758297379279                     5      43.8792940795627
433640320       14.758297379279                     5      46.3392940795627
433640320       14.758297379279                     5      48.7992940795627
433640320       14.758297379279                     5       1.2592940795627
433640320       16.899759379279                     5      35.2692940795627
433640320       16.899759379279                     5      37.7292940795627
433640320       16.899759379279                     5      40.1892940795627