search structure

300 atoms
2  atom types

0   17.131700 xlo xhi
0   10.000000 ylo yhi
0   50.000000 zlo zhi

Atoms

1 2 1.909759 5.000000 36.490439
2 2 1.909759 5.000000 38.950439
3 2 1.909759 5.000000 41.410439
4 2 1.909759 5.000000 43.870439
5 2 1.909759 5.000000 46.330439
6 2 1.909759 5.000000 48.790439
7 2 1.909759 5.000000 51.250439
8 2 4.051221 5.000000 35.260439
9 2 4.051221 5.000000 37.720439
10 2 4.051221 5.000000 40.180439
11 2 4.051221 5.000000 42.640439
12 2 4.051221 5.000000 45.100439
13 2 4.051221 5.000000 47.560439
14 2 4.051221 5.000000 50.020439
15 2 3.337515 5.000000 36.490439
16 2 3.337515 5.000000 38.950439
17 2 3.337515 5.000000 41.410439
18 2 3.337515 5.000000 43.870439
19 2 3.337515 5.000000 46.330439
20 2 3.337515 5.000000 48.790439
21 2 3.337515 5.000000 51.250439
22 2 5.478977 5.000000 35.260439
23 2 5.478977 5.000000 37.720439
24 2 5.478977 5.000000 40.180439
25 2 5.478977 5.000000 42.640439
26 2 5.478977 5.000000 45.100439
27 2 5.478977 5.000000 47.560439
28 2 5.478977 5.000000 50.020439
29 2 6.192684 5.000000 36.490439
30 2 6.192684 5.000000 38.950439
31 1 6.192684 5.000000 41.410439
32 1 6.192684 5.000000 43.870439
33 1 6.192684 5.000000 46.330439
34 1 6.192684 5.000000 48.790439
35 1 6.192684 5.000000 51.250439
36 1 8.334146 5.000000 35.260439
37 1 8.334146 5.000000 37.720439
38 1 8.334146 5.000000 40.180439
39 1 8.334146 5.000000 42.640439
40 1 8.334146 5.000000 45.100439
41 1 8.334146 5.000000 47.560439
42 1 8.334146 5.000000 50.020439
43 1 7.620440 5.000000 36.490439
44 1 7.620440 5.000000 38.950439
45 1 7.620440 5.000000 41.410439
46 1 7.620440 5.000000 43.870439
47 1 7.620440 5.000000 46.330439
48 1 7.620440 5.000000 48.790439
49 1 7.620440 5.000000 51.250439
50 1 9.761902 5.000000 35.260439
51 1 9.761902 5.000000 37.720439
52 1 9.761902 5.000000 40.180439
53 1 9.761902 5.000000 42.640439
54 1 9.761902 5.000000 45.100439
55 1 9.761902 5.000000 47.560439
56 1 9.761902 5.000000 50.020439
57 1 10.475609 5.000000 36.490439
58 1 10.475609 5.000000 38.950439
59 1 10.475609 5.000000 41.410439
60 1 10.475609 5.000000 43.870439
61 1 10.475609 5.000000 46.330439
62 1 10.475609 5.000000 48.790439
63 1 10.475609 5.000000 51.250439
64 1 12.617071 5.000000 35.260439
65 1 12.617071 5.000000 37.720439
66 1 12.617071 5.000000 40.180439
67 1 12.617071 5.000000 42.640439
68 1 12.617071 5.000000 45.100439
69 1 12.617071 5.000000 47.560439
70 1 12.617071 5.000000 50.020439
71 1 11.903365 5.000000 36.490439
72 1 11.903365 5.000000 38.950439
73 1 11.903365 5.000000 41.410439
74 1 11.903365 5.000000 43.870439
75 1 11.903365 5.000000 46.330439
76 1 11.903365 5.000000 48.790439
77 1 11.903365 5.000000 51.250439
78 1 14.044827 5.000000 35.260439
79 1 14.044827 5.000000 37.720439
80 1 14.044827 5.000000 40.180439
81 1 14.044827 5.000000 42.640439
82 1 14.044827 5.000000 45.100439
83 1 14.044827 5.000000 47.560439
84 1 14.044827 5.000000 50.020439
85 1 14.758534 5.000000 36.490439
86 1 14.758534 5.000000 38.950439
87 1 14.758534 5.000000 41.410439
88 1 14.758534 5.000000 43.870439
89 1 14.758534 5.000000 46.330439
90 1 14.758534 5.000000 48.790439
91 1 14.758534 5.000000 51.250439
92 1 16.899996 5.000000 35.260439
93 1 16.899996 5.000000 37.720439
94 1 16.899996 5.000000 40.180439
95 1 16.899996 5.000000 42.640439
96 1 16.899996 5.000000 45.100439
97 1 16.899996 5.000000 47.560439
98 1 16.899996 5.000000 50.020439
99 1 16.186290 5.000000 36.490439
100 1 16.186290 5.000000 38.950439
101 1 16.186290 5.000000 41.410439
102 1 16.186290 5.000000 43.870439
103 1 16.186290 5.000000 46.330439
104 1 16.186290 5.000000 48.790439
105 1 16.186290 5.000000 51.250439
106 1 1.196052 5.000000 35.260439
107 1 1.196052 5.000000 37.720439
108 1 1.196052 5.000000 40.180439
109 1 1.196052 5.000000 42.640439
110 1 1.196052 5.000000 45.100439
111 1 1.196052 5.000000 47.560439
112 1 1.196052 5.000000 50.020439
113 2 1.339616 5.000000 52.237939
114 2 3.907486 5.000000 52.237939
115 2 5.624768 5.000000 52.238939
116 2 8.190411 5.000000 52.237939
117 2 9.907693 5.000000 52.238939
118 2 12.473336 5.000000 52.237939
119 2 14.190618 5.000000 52.238939
120 2 16.756261 5.000000 52.237939
121 1 -0.039917 5.000000 8.565500
122 1 -0.039917 5.000000 12.826500
123 1 -0.039917 5.000000 17.087500
124 1 -0.039917 5.000000 21.348000
125 1 -0.039917 5.000000 9.986000
126 1 -0.039917 5.000000 14.246500
127 1 -0.039917 5.000000 18.507500
128 1 -0.039917 5.000000 22.768500
129 1 15.868066 5.000000 10.696000
130 1 15.868066 5.000000 14.957000
131 1 15.868066 5.000000 19.217500
132 1 15.868066 5.000000 23.478500
133 1 15.868066 5.000000 7.855500
134 1 15.868066 5.000000 12.116500
135 1 15.868066 5.000000 16.377000
136 1 15.868066 5.000000 20.638000
137 1 14.644348 5.000000 8.565500
138 1 14.644348 5.000000 12.826500
139 1 14.644348 5.000000 17.087500
140 1 14.644348 5.000000 21.348000
141 1 13.420631 5.000000 10.696000
142 1 13.420631 5.000000 14.957000
143 1 13.420631 5.000000 19.217500
144 1 13.420631 5.000000 23.478500
145 1 14.644348 5.000000 9.986000
146 1 14.644348 5.000000 14.246500
147 1 14.644348 5.000000 18.507500
148 1 14.644348 5.000000 22.768500
149 1 13.420631 5.000000 7.855500
150 1 13.420631 5.000000 12.116500
151 1 13.420631 5.000000 16.377000
152 1 13.420631 5.000000 20.638000
153 1 12.197085 5.000000 8.565500
154 1 12.197085 5.000000 12.826500
155 1 12.197085 5.000000 17.087500
156 1 12.197085 5.000000 21.348000
157 1 10.973368 5.000000 10.696000
158 1 10.973368 5.000000 14.957000
159 1 10.973368 5.000000 19.217500
160 1 10.973368 5.000000 23.478500
161 1 12.197085 5.000000 9.986000
162 1 12.197085 5.000000 14.246500
163 1 12.197085 5.000000 18.507500
164 1 12.197085 5.000000 22.768500
165 1 10.973368 5.000000 7.855500
166 1 10.973368 5.000000 12.116500
167 1 10.973368 5.000000 16.377000
168 1 10.973368 5.000000 20.638000
169 1 9.749650 5.000000 8.565500
170 1 9.749650 5.000000 12.826500
171 1 9.749650 5.000000 17.087500
172 1 9.749650 5.000000 21.348000
173 1 8.525933 5.000000 10.696000
174 1 8.525933 5.000000 14.957000
175 1 8.525933 5.000000 19.217500
176 1 8.525933 5.000000 23.478500
177 1 9.749650 5.000000 9.986000
178 1 9.749650 5.000000 14.246500
179 1 9.749650 5.000000 18.507500
180 1 9.749650 5.000000 22.768500
181 1 8.525933 5.000000 7.855500
182 1 8.525933 5.000000 12.116500
183 1 8.525933 5.000000 16.377000
184 1 8.525933 5.000000 20.638000
185 1 7.302216 5.000000 8.565500
186 1 7.302216 5.000000 12.826500
187 1 7.302216 5.000000 17.087500
188 1 7.302216 5.000000 21.348000
189 1 6.078498 5.000000 10.696000
190 1 6.078498 5.000000 14.957000
191 1 6.078498 5.000000 19.217500
192 1 6.078498 5.000000 23.478500
193 1 7.302216 5.000000 9.986000
194 1 7.302216 5.000000 14.246500
195 1 7.302216 5.000000 18.507500
196 1 7.302216 5.000000 22.768500
197 1 6.078498 5.000000 7.855500
198 1 6.078498 5.000000 12.116500
199 1 6.078498 5.000000 16.377000
200 1 6.078498 5.000000 20.638000
201 1 4.854781 5.000000 8.565500
202 1 4.854781 5.000000 12.826500
203 1 4.854781 5.000000 17.087500
204 1 4.854781 5.000000 21.348000
205 1 3.631235 5.000000 10.696000
206 1 3.631235 5.000000 14.957000
207 1 3.631235 5.000000 19.217500
208 1 3.631235 5.000000 23.478500
209 1 4.854781 5.000000 9.986000
210 1 4.854781 5.000000 14.246500
211 1 4.854781 5.000000 18.507500
212 1 4.854781 5.000000 22.768500
213 1 3.631235 5.000000 7.855500
214 1 3.631235 5.000000 12.116500
215 1 3.631235 5.000000 16.377000
216 1 3.631235 5.000000 20.638000
217 1 2.407518 5.000000 8.565500
218 1 2.407518 5.000000 12.826500
219 1 2.407518 5.000000 17.087500
220 1 2.407518 5.000000 21.348000
221 1 1.183800 5.000000 10.696000
222 1 1.183800 5.000000 14.957000
223 1 1.183800 5.000000 19.217500
224 1 1.183800 5.000000 23.478500
225 1 2.407518 5.000000 9.986000
226 1 2.407518 5.000000 14.246500
227 1 2.407518 5.000000 18.507500
228 1 2.407518 5.000000 22.768500
229 1 1.183800 5.000000 7.855500
230 1 1.183800 5.000000 12.116500
231 1 1.183800 5.000000 16.377000
232 1 1.183800 5.000000 20.638000
233 2 15.865667 5.000000 6.715500
234 2 13.423030 5.000000 6.715500
235 2 10.975766 5.000000 6.715500
236 2 8.528332 5.000000 6.715500
237 2 6.080897 5.000000 6.715500
238 2 3.633634 5.000000 6.715500
239 2 1.181402 5.000000 6.715500
240 2 15.715054 0.771992 25.821754
241 2 0.253051 0.797673 27.441582
242 2 2.739568 3.409428 25.490235
243 2 5.327710 9.027739 25.228680
244 2 3.368119 9.274098 24.328579
245 2 10.945823 3.520186 24.584742
246 2 3.603863 6.154053 23.500000
247 2 5.617974 6.621425 24.984126
248 2 12.449664 6.348103 26.651610
249 2 17.041784 0.326259 28.011775
250 2 3.909089 2.397655 27.719347
251 2 4.105851 5.382188 26.730973
252 2 9.446394 4.830585 29.734582
253 2 2.233978 1.914958 28.178077
254 2 8.086372 3.156010 27.186924
255 2 12.513287 6.966904 25.038417
256 2 4.303298 7.556917 28.180908
257 2 8.959629 0.412311 28.166358
258 2 0.264847 5.094153 34.493808
259 2 9.198390 1.954589 33.367826
260 2 10.231405 4.340710 27.587078
261 2 2.988947 1.073669 29.593075
262 2 5.665411 9.060078 34.203090
263 2 8.420067 2.128685 30.490027
264 2 6.648501 6.315102 35.183939
265 2 3.770628 6.392762 34.907972
266 2 9.782958 8.552621 28.963932
267 2 12.671243 9.461700 29.296610
268 1 7.476086 9.168256 26.408813
269 1 4.365456 1.247841 24.333049
270 1 16.320181 4.991593 25.061056
271 1 14.636722 8.726294 25.157170
272 1 11.283792 0.065457 24.756919
273 1 12.711975 1.946977 24.495991
274 1 12.561638 5.145636 25.180543
275 1 13.846987 6.895165 25.471913
276 1 15.464614 8.164224 25.434496
277 1 10.479371 0.458854 24.032016
278 1 14.122103 0.664754 23.547585
279 1 17.091099 9.614013 29.827640
280 1 3.699285 1.605719 30.310358
281 1 0.414204 2.902521 29.428144
282 1 7.329538 8.480446 29.352862
283 1 5.074789 0.049846 28.033775
284 1 8.107934 2.261880 29.014131
285 1 15.299462 3.118707 26.539474
286 1 8.074408 7.423902 27.850824
287 1 9.017742 8.070443 29.963265
288 1 12.107138 7.117336 27.826276
289 1 9.806573 8.486789 27.684008
290 1 5.607339 8.882729 35.058700
291 1 12.618433 1.453595 33.307371
292 1 9.326337 3.024654 35.183939
293 1 17.093127 3.708572 33.399396
294 1 6.353836 9.298196 35.183939
295 1 11.650718 3.006195 35.183939
296 1 16.444295 5.486064 31.393914
297 1 9.937787 5.340127 32.511842
298 1 13.323267 4.533836 35.141636
299 1 11.940059 9.752849 33.563812
300 1 1.301931 9.434102 34.265735
